n -t 0 -s 0 -S DLABEL -l "Ping0" -L ""
n -t 0 -s 4 -S DLABEL -l "Ping4" -L ""
n -t 0 -s 1 -S DLABEL -l "Ping1" -L ""
n -t 0 -s 5 -S DLABEL -l "Ping5" -L ""
V -t * -v 1.0a5 -a 0
A -t * -n 1 -p 0 -o 0x7fffffff -c 30 -a 1
A -t * -h 1 -m 1073741823 -s 0
c -t * -i 1 -n blue
c -t * -i 2 -n orange
n -t * -a 4 -s 4 -S UP -v circle -c black -i black
n -t * -a 0 -s 0 -S UP -v circle -c black -i black
n -t * -a 5 -s 5 -S UP -v circle -c black -i black
n -t * -a 1 -s 1 -S UP -v circle -c black -i black
n -t * -a 2 -s 2 -S UP -v circle -c black -i black
n -t * -a 3 -s 3 -S UP -v circle -c black -i black
l -t * -s 0 -d 2 -S UP -r 500000 -D 0.01 -c black
l -t * -s 1 -d 2 -S UP -r 500000 -D 0.01 -c black
l -t * -s 2 -d 3 -S UP -r 500000 -D 0.01 -c black
l -t * -s 3 -d 4 -S UP -r 500000 -D 0.01 -c black
l -t * -s 3 -d 5 -S UP -r 500000 -D 0.01 -c black
+ -t 0.1 -s 0 -d 2 -p ping -e 500 -c 1 -i 0 -a 1 -x {0.0 4.0 -1 ------- null}
- -t 0.1 -s 0 -d 2 -p ping -e 500 -c 1 -i 0 -a 1 -x {0.0 4.0 -1 ------- null}
h -t 0.1 -s 0 -d 2 -p ping -e 500 -c 1 -i 0 -a 1 -x {0.0 4.0 -1 ------- null}
+ -t 0.1 -s 1 -d 2 -p ping -e 500 -c 2 -i 1 -a 2 -x {1.0 5.0 -1 ------- null}
- -t 0.1 -s 1 -d 2 -p ping -e 500 -c 2 -i 1 -a 2 -x {1.0 5.0 -1 ------- null}
h -t 0.1 -s 1 -d 2 -p ping -e 500 -c 2 -i 1 -a 2 -x {1.0 5.0 -1 ------- null}
r -t 0.118 -s 0 -d 2 -p ping -e 500 -c 1 -i 0 -a 1 -x {0.0 4.0 -1 ------- null}
+ -t 0.118 -s 2 -d 3 -p ping -e 500 -c 1 -i 0 -a 1 -x {0.0 4.0 -1 ------- null}
- -t 0.118 -s 2 -d 3 -p ping -e 500 -c 1 -i 0 -a 1 -x {0.0 4.0 -1 ------- null}
h -t 0.118 -s 2 -d 3 -p ping -e 500 -c 1 -i 0 -a 1 -x {0.0 4.0 -1 ------- null}
r -t 0.118 -s 1 -d 2 -p ping -e 500 -c 2 -i 1 -a 2 -x {1.0 5.0 -1 ------- null}
+ -t 0.118 -s 2 -d 3 -p ping -e 500 -c 2 -i 1 -a 2 -x {1.0 5.0 -1 ------- null}
- -t 0.126 -s 2 -d 3 -p ping -e 500 -c 2 -i 1 -a 2 -x {1.0 5.0 -1 ------- null}
h -t 0.126 -s 2 -d 3 -p ping -e 500 -c 2 -i 1 -a 2 -x {1.0 5.0 -1 ------- null}
r -t 0.136 -s 2 -d 3 -p ping -e 500 -c 1 -i 0 -a 1 -x {0.0 4.0 -1 ------- null}
+ -t 0.136 -s 3 -d 4 -p ping -e 500 -c 1 -i 0 -a 1 -x {0.0 4.0 -1 ------- null}
- -t 0.136 -s 3 -d 4 -p ping -e 500 -c 1 -i 0 -a 1 -x {0.0 4.0 -1 ------- null}
h -t 0.136 -s 3 -d 4 -p ping -e 500 -c 1 -i 0 -a 1 -x {0.0 4.0 -1 ------- null}
r -t 0.144 -s 2 -d 3 -p ping -e 500 -c 2 -i 1 -a 2 -x {1.0 5.0 -1 ------- null}
+ -t 0.144 -s 3 -d 5 -p ping -e 500 -c 2 -i 1 -a 2 -x {1.0 5.0 -1 ------- null}
- -t 0.144 -s 3 -d 5 -p ping -e 500 -c 2 -i 1 -a 2 -x {1.0 5.0 -1 ------- null}
h -t 0.144 -s 3 -d 5 -p ping -e 500 -c 2 -i 1 -a 2 -x {1.0 5.0 -1 ------- null}
r -t 0.154 -s 3 -d 4 -p ping -e 500 -c 1 -i 0 -a 1 -x {0.0 4.0 -1 ------- null}
+ -t 0.154 -s 4 -d 3 -p ping -e 500 -c 0 -i 2 -a 0 -x {4.0 0.0 -1 ------- null}
- -t 0.154 -s 4 -d 3 -p ping -e 500 -c 0 -i 2 -a 0 -x {4.0 0.0 -1 ------- null}
h -t 0.154 -s 4 -d 3 -p ping -e 500 -c 0 -i 2 -a 0 -x {4.0 0.0 -1 ------- null}
r -t 0.162 -s 3 -d 5 -p ping -e 500 -c 2 -i 1 -a 2 -x {1.0 5.0 -1 ------- null}
+ -t 0.162 -s 5 -d 3 -p ping -e 500 -c 0 -i 3 -a 0 -x {5.0 1.0 -1 ------- null}
- -t 0.162 -s 5 -d 3 -p ping -e 500 -c 0 -i 3 -a 0 -x {5.0 1.0 -1 ------- null}
h -t 0.162 -s 5 -d 3 -p ping -e 500 -c 0 -i 3 -a 0 -x {5.0 1.0 -1 ------- null}
r -t 0.172 -s 4 -d 3 -p ping -e 500 -c 0 -i 2 -a 0 -x {4.0 0.0 -1 ------- null}
+ -t 0.172 -s 3 -d 2 -p ping -e 500 -c 0 -i 2 -a 0 -x {4.0 0.0 -1 ------- null}
- -t 0.172 -s 3 -d 2 -p ping -e 500 -c 0 -i 2 -a 0 -x {4.0 0.0 -1 ------- null}
h -t 0.172 -s 3 -d 2 -p ping -e 500 -c 0 -i 2 -a 0 -x {4.0 0.0 -1 ------- null}
r -t 0.18 -s 5 -d 3 -p ping -e 500 -c 0 -i 3 -a 0 -x {5.0 1.0 -1 ------- null}
+ -t 0.18 -s 3 -d 2 -p ping -e 500 -c 0 -i 3 -a 0 -x {5.0 1.0 -1 ------- null}
- -t 0.18 -s 3 -d 2 -p ping -e 500 -c 0 -i 3 -a 0 -x {5.0 1.0 -1 ------- null}
h -t 0.18 -s 3 -d 2 -p ping -e 500 -c 0 -i 3 -a 0 -x {5.0 1.0 -1 ------- null}
r -t 0.19 -s 3 -d 2 -p ping -e 500 -c 0 -i 2 -a 0 -x {4.0 0.0 -1 ------- null}
+ -t 0.19 -s 2 -d 0 -p ping -e 500 -c 0 -i 2 -a 0 -x {4.0 0.0 -1 ------- null}
- -t 0.19 -s 2 -d 0 -p ping -e 500 -c 0 -i 2 -a 0 -x {4.0 0.0 -1 ------- null}
h -t 0.19 -s 2 -d 0 -p ping -e 500 -c 0 -i 2 -a 0 -x {4.0 0.0 -1 ------- null}
r -t 0.198 -s 3 -d 2 -p ping -e 500 -c 0 -i 3 -a 0 -x {5.0 1.0 -1 ------- null}
+ -t 0.198 -s 2 -d 1 -p ping -e 500 -c 0 -i 3 -a 0 -x {5.0 1.0 -1 ------- null}
- -t 0.198 -s 2 -d 1 -p ping -e 500 -c 0 -i 3 -a 0 -x {5.0 1.0 -1 ------- null}
h -t 0.198 -s 2 -d 1 -p ping -e 500 -c 0 -i 3 -a 0 -x {5.0 1.0 -1 ------- null}
+ -t 0.2 -s 0 -d 2 -p ping -e 500 -c 1 -i 4 -a 1 -x {0.0 4.0 -1 ------- null}
- -t 0.2 -s 0 -d 2 -p ping -e 500 -c 1 -i 4 -a 1 -x {0.0 4.0 -1 ------- null}
h -t 0.2 -s 0 -d 2 -p ping -e 500 -c 1 -i 4 -a 1 -x {0.0 4.0 -1 ------- null}
+ -t 0.2 -s 0 -d 2 -p cbr -e 512 -c 0 -i 5 -a 0 -x {0.1 4.1 0 ------- null}
+ -t 0.2 -s 1 -d 2 -p ping -e 500 -c 2 -i 6 -a 2 -x {1.0 5.0 -1 ------- null}
- -t 0.2 -s 1 -d 2 -p ping -e 500 -c 2 -i 6 -a 2 -x {1.0 5.0 -1 ------- null}
h -t 0.2 -s 1 -d 2 -p ping -e 500 -c 2 -i 6 -a 2 -x {1.0 5.0 -1 ------- null}
+ -t 0.201 -s 0 -d 2 -p cbr -e 512 -c 0 -i 7 -a 0 -x {0.1 4.1 1 ------- null}
+ -t 0.202 -s 0 -d 2 -p cbr -e 512 -c 0 -i 8 -a 0 -x {0.1 4.1 2 ------- null}
+ -t 0.203 -s 0 -d 2 -p cbr -e 512 -c 0 -i 9 -a 0 -x {0.1 4.1 3 ------- null}
+ -t 0.204 -s 0 -d 2 -p cbr -e 512 -c 0 -i 10 -a 0 -x {0.1 4.1 4 ------- null}
+ -t 0.205 -s 0 -d 2 -p cbr -e 512 -c 0 -i 11 -a 0 -x {0.1 4.1 5 ------- null}
+ -t 0.206 -s 0 -d 2 -p cbr -e 512 -c 0 -i 12 -a 0 -x {0.1 4.1 6 ------- null}
+ -t 0.207 -s 0 -d 2 -p cbr -e 512 -c 0 -i 13 -a 0 -x {0.1 4.1 7 ------- null}
- -t 0.208 -s 0 -d 2 -p cbr -e 512 -c 0 -i 5 -a 0 -x {0.1 4.1 0 ------- null}
h -t 0.208 -s 0 -d 2 -p cbr -e 512 -c 0 -i 5 -a 0 -x {0.1 4.1 -1 ------- null}
+ -t 0.208 -s 0 -d 2 -p cbr -e 512 -c 0 -i 14 -a 0 -x {0.1 4.1 8 ------- null}
r -t 0.208 -s 2 -d 0 -p ping -e 500 -c 0 -i 2 -a 0 -x {4.0 0.0 -1 ------- null}
+ -t 0.209 -s 0 -d 2 -p cbr -e 512 -c 0 -i 15 -a 0 -x {0.1 4.1 9 ------- null}
+ -t 0.21 -s 0 -d 2 -p cbr -e 512 -c 0 -i 16 -a 0 -x {0.1 4.1 10 ------- null}
+ -t 0.211 -s 0 -d 2 -p cbr -e 512 -c 0 -i 17 -a 0 -x {0.1 4.1 11 ------- null}
+ -t 0.212 -s 0 -d 2 -p cbr -e 512 -c 0 -i 18 -a 0 -x {0.1 4.1 12 ------- null}
+ -t 0.213 -s 0 -d 2 -p cbr -e 512 -c 0 -i 19 -a 0 -x {0.1 4.1 13 ------- null}
+ -t 0.214 -s 0 -d 2 -p cbr -e 512 -c 0 -i 20 -a 0 -x {0.1 4.1 14 ------- null}
+ -t 0.215 -s 0 -d 2 -p cbr -e 512 -c 0 -i 21 -a 0 -x {0.1 4.1 15 ------- null}
+ -t 0.216 -s 0 -d 2 -p cbr -e 512 -c 0 -i 22 -a 0 -x {0.1 4.1 16 ------- null}
r -t 0.216 -s 2 -d 1 -p ping -e 500 -c 0 -i 3 -a 0 -x {5.0 1.0 -1 ------- null}
- -t 0.216192 -s 0 -d 2 -p cbr -e 512 -c 0 -i 7 -a 0 -x {0.1 4.1 1 ------- null}
h -t 0.216192 -s 0 -d 2 -p cbr -e 512 -c 0 -i 7 -a 0 -x {0.1 4.1 -1 ------- null}
+ -t 0.217 -s 0 -d 2 -p cbr -e 512 -c 0 -i 23 -a 0 -x {0.1 4.1 17 ------- null}
r -t 0.218 -s 0 -d 2 -p ping -e 500 -c 1 -i 4 -a 1 -x {0.0 4.0 -1 ------- null}
+ -t 0.218 -s 2 -d 3 -p ping -e 500 -c 1 -i 4 -a 1 -x {0.0 4.0 -1 ------- null}
- -t 0.218 -s 2 -d 3 -p ping -e 500 -c 1 -i 4 -a 1 -x {0.0 4.0 -1 ------- null}
h -t 0.218 -s 2 -d 3 -p ping -e 500 -c 1 -i 4 -a 1 -x {0.0 4.0 -1 ------- null}
r -t 0.218 -s 1 -d 2 -p ping -e 500 -c 2 -i 6 -a 2 -x {1.0 5.0 -1 ------- null}
+ -t 0.218 -s 2 -d 3 -p ping -e 500 -c 2 -i 6 -a 2 -x {1.0 5.0 -1 ------- null}
+ -t 0.218 -s 0 -d 2 -p cbr -e 512 -c 0 -i 24 -a 0 -x {0.1 4.1 18 ------- null}
+ -t 0.219 -s 0 -d 2 -p cbr -e 512 -c 0 -i 25 -a 0 -x {0.1 4.1 19 ------- null}
+ -t 0.22 -s 0 -d 2 -p cbr -e 512 -c 0 -i 26 -a 0 -x {0.1 4.1 20 ------- null}
+ -t 0.221 -s 0 -d 2 -p cbr -e 512 -c 0 -i 27 -a 0 -x {0.1 4.1 21 ------- null}
+ -t 0.222 -s 0 -d 2 -p cbr -e 512 -c 0 -i 28 -a 0 -x {0.1 4.1 22 ------- null}
+ -t 0.223 -s 0 -d 2 -p cbr -e 512 -c 0 -i 29 -a 0 -x {0.1 4.1 23 ------- null}
+ -t 0.224 -s 0 -d 2 -p cbr -e 512 -c 0 -i 30 -a 0 -x {0.1 4.1 24 ------- null}
- -t 0.224384 -s 0 -d 2 -p cbr -e 512 -c 0 -i 8 -a 0 -x {0.1 4.1 2 ------- null}
h -t 0.224384 -s 0 -d 2 -p cbr -e 512 -c 0 -i 8 -a 0 -x {0.1 4.1 -1 ------- null}
+ -t 0.225 -s 0 -d 2 -p cbr -e 512 -c 0 -i 31 -a 0 -x {0.1 4.1 25 ------- null}
- -t 0.226 -s 2 -d 3 -p ping -e 500 -c 2 -i 6 -a 2 -x {1.0 5.0 -1 ------- null}
h -t 0.226 -s 2 -d 3 -p ping -e 500 -c 2 -i 6 -a 2 -x {1.0 5.0 -1 ------- null}
+ -t 0.226 -s 0 -d 2 -p cbr -e 512 -c 0 -i 32 -a 0 -x {0.1 4.1 26 ------- null}
r -t 0.226192 -s 0 -d 2 -p cbr -e 512 -c 0 -i 5 -a 0 -x {0.1 4.1 0 ------- null}
+ -t 0.226192 -s 2 -d 3 -p cbr -e 512 -c 0 -i 5 -a 0 -x {0.1 4.1 0 ------- null}
+ -t 0.227 -s 0 -d 2 -p cbr -e 512 -c 0 -i 33 -a 0 -x {0.1 4.1 27 ------- null}
+ -t 0.228 -s 0 -d 2 -p cbr -e 512 -c 0 -i 34 -a 0 -x {0.1 4.1 28 ------- null}
+ -t 0.229 -s 0 -d 2 -p cbr -e 512 -c 0 -i 35 -a 0 -x {0.1 4.1 29 ------- null}
+ -t 0.23 -s 0 -d 2 -p cbr -e 512 -c 0 -i 36 -a 0 -x {0.1 4.1 30 ------- null}
+ -t 0.231 -s 0 -d 2 -p cbr -e 512 -c 0 -i 37 -a 0 -x {0.1 4.1 31 ------- null}
+ -t 0.232 -s 0 -d 2 -p cbr -e 512 -c 0 -i 38 -a 0 -x {0.1 4.1 32 ------- null}
- -t 0.232576 -s 0 -d 2 -p cbr -e 512 -c 0 -i 9 -a 0 -x {0.1 4.1 3 ------- null}
h -t 0.232576 -s 0 -d 2 -p cbr -e 512 -c 0 -i 9 -a 0 -x {0.1 4.1 -1 ------- null}
+ -t 0.233 -s 0 -d 2 -p cbr -e 512 -c 0 -i 39 -a 0 -x {0.1 4.1 33 ------- null}
- -t 0.234 -s 2 -d 3 -p cbr -e 512 -c 0 -i 5 -a 0 -x {0.1 4.1 0 ------- null}
h -t 0.234 -s 2 -d 3 -p cbr -e 512 -c 0 -i 5 -a 0 -x {0.1 4.1 -1 ------- null}
+ -t 0.234 -s 0 -d 2 -p cbr -e 512 -c 0 -i 40 -a 0 -x {0.1 4.1 34 ------- null}
r -t 0.234384 -s 0 -d 2 -p cbr -e 512 -c 0 -i 7 -a 0 -x {0.1 4.1 1 ------- null}
+ -t 0.234384 -s 2 -d 3 -p cbr -e 512 -c 0 -i 7 -a 0 -x {0.1 4.1 1 ------- null}
+ -t 0.235 -s 0 -d 2 -p cbr -e 512 -c 0 -i 41 -a 0 -x {0.1 4.1 35 ------- null}
r -t 0.236 -s 2 -d 3 -p ping -e 500 -c 1 -i 4 -a 1 -x {0.0 4.0 -1 ------- null}
+ -t 0.236 -s 3 -d 4 -p ping -e 500 -c 1 -i 4 -a 1 -x {0.0 4.0 -1 ------- null}
- -t 0.236 -s 3 -d 4 -p ping -e 500 -c 1 -i 4 -a 1 -x {0.0 4.0 -1 ------- null}
h -t 0.236 -s 3 -d 4 -p ping -e 500 -c 1 -i 4 -a 1 -x {0.0 4.0 -1 ------- null}
+ -t 0.236 -s 0 -d 2 -p cbr -e 512 -c 0 -i 42 -a 0 -x {0.1 4.1 36 ------- null}
+ -t 0.237 -s 0 -d 2 -p cbr -e 512 -c 0 -i 43 -a 0 -x {0.1 4.1 37 ------- null}
+ -t 0.238 -s 0 -d 2 -p cbr -e 512 -c 0 -i 44 -a 0 -x {0.1 4.1 38 ------- null}
+ -t 0.239 -s 0 -d 2 -p cbr -e 512 -c 0 -i 45 -a 0 -x {0.1 4.1 39 ------- null}
+ -t 0.24 -s 0 -d 2 -p cbr -e 512 -c 0 -i 46 -a 0 -x {0.1 4.1 40 ------- null}
- -t 0.240768 -s 0 -d 2 -p cbr -e 512 -c 0 -i 10 -a 0 -x {0.1 4.1 4 ------- null}
h -t 0.240768 -s 0 -d 2 -p cbr -e 512 -c 0 -i 10 -a 0 -x {0.1 4.1 -1 ------- null}
+ -t 0.241 -s 0 -d 2 -p cbr -e 512 -c 0 -i 47 -a 0 -x {0.1 4.1 41 ------- null}
+ -t 0.242 -s 0 -d 2 -p cbr -e 512 -c 0 -i 48 -a 0 -x {0.1 4.1 42 ------- null}
- -t 0.242192 -s 2 -d 3 -p cbr -e 512 -c 0 -i 7 -a 0 -x {0.1 4.1 1 ------- null}
h -t 0.242192 -s 2 -d 3 -p cbr -e 512 -c 0 -i 7 -a 0 -x {0.1 4.1 -1 ------- null}
r -t 0.242576 -s 0 -d 2 -p cbr -e 512 -c 0 -i 8 -a 0 -x {0.1 4.1 2 ------- null}
+ -t 0.242576 -s 2 -d 3 -p cbr -e 512 -c 0 -i 8 -a 0 -x {0.1 4.1 2 ------- null}
+ -t 0.243 -s 0 -d 2 -p cbr -e 512 -c 0 -i 49 -a 0 -x {0.1 4.1 43 ------- null}
r -t 0.244 -s 2 -d 3 -p ping -e 500 -c 2 -i 6 -a 2 -x {1.0 5.0 -1 ------- null}
+ -t 0.244 -s 3 -d 5 -p ping -e 500 -c 2 -i 6 -a 2 -x {1.0 5.0 -1 ------- null}
- -t 0.244 -s 3 -d 5 -p ping -e 500 -c 2 -i 6 -a 2 -x {1.0 5.0 -1 ------- null}
h -t 0.244 -s 3 -d 5 -p ping -e 500 -c 2 -i 6 -a 2 -x {1.0 5.0 -1 ------- null}
+ -t 0.244 -s 0 -d 2 -p cbr -e 512 -c 0 -i 50 -a 0 -x {0.1 4.1 44 ------- null}
+ -t 0.245 -s 0 -d 2 -p cbr -e 512 -c 0 -i 51 -a 0 -x {0.1 4.1 45 ------- null}
+ -t 0.246 -s 0 -d 2 -p cbr -e 512 -c 0 -i 52 -a 0 -x {0.1 4.1 46 ------- null}
+ -t 0.247 -s 0 -d 2 -p cbr -e 512 -c 0 -i 53 -a 0 -x {0.1 4.1 47 ------- null}
+ -t 0.248 -s 0 -d 2 -p cbr -e 512 -c 0 -i 54 -a 0 -x {0.1 4.1 48 ------- null}
- -t 0.24896 -s 0 -d 2 -p cbr -e 512 -c 0 -i 11 -a 0 -x {0.1 4.1 5 ------- null}
h -t 0.24896 -s 0 -d 2 -p cbr -e 512 -c 0 -i 11 -a 0 -x {0.1 4.1 -1 ------- null}
+ -t 0.249 -s 0 -d 2 -p cbr -e 512 -c 0 -i 55 -a 0 -x {0.1 4.1 49 ------- null}
+ -t 0.25 -s 0 -d 2 -p cbr -e 512 -c 0 -i 56 -a 0 -x {0.1 4.1 50 ------- null}
- -t 0.250384 -s 2 -d 3 -p cbr -e 512 -c 0 -i 8 -a 0 -x {0.1 4.1 2 ------- null}
h -t 0.250384 -s 2 -d 3 -p cbr -e 512 -c 0 -i 8 -a 0 -x {0.1 4.1 -1 ------- null}
r -t 0.250768 -s 0 -d 2 -p cbr -e 512 -c 0 -i 9 -a 0 -x {0.1 4.1 3 ------- null}
+ -t 0.250768 -s 2 -d 3 -p cbr -e 512 -c 0 -i 9 -a 0 -x {0.1 4.1 3 ------- null}
+ -t 0.251 -s 0 -d 2 -p cbr -e 512 -c 0 -i 57 -a 0 -x {0.1 4.1 51 ------- null}
+ -t 0.252 -s 0 -d 2 -p cbr -e 512 -c 0 -i 58 -a 0 -x {0.1 4.1 52 ------- null}
r -t 0.252192 -s 2 -d 3 -p cbr -e 512 -c 0 -i 5 -a 0 -x {0.1 4.1 0 ------- null}
+ -t 0.252192 -s 3 -d 4 -p cbr -e 512 -c 0 -i 5 -a 0 -x {0.1 4.1 0 ------- null}
- -t 0.252192 -s 3 -d 4 -p cbr -e 512 -c 0 -i 5 -a 0 -x {0.1 4.1 0 ------- null}
h -t 0.252192 -s 3 -d 4 -p cbr -e 512 -c 0 -i 5 -a 0 -x {0.1 4.1 -1 ------- null}
+ -t 0.253 -s 0 -d 2 -p cbr -e 512 -c 0 -i 59 -a 0 -x {0.1 4.1 53 ------- null}
r -t 0.254 -s 3 -d 4 -p ping -e 500 -c 1 -i 4 -a 1 -x {0.0 4.0 -1 ------- null}
+ -t 0.254 -s 4 -d 3 -p ping -e 500 -c 0 -i 60 -a 0 -x {4.0 0.0 -1 ------- null}
- -t 0.254 -s 4 -d 3 -p ping -e 500 -c 0 -i 60 -a 0 -x {4.0 0.0 -1 ------- null}
h -t 0.254 -s 4 -d 3 -p ping -e 500 -c 0 -i 60 -a 0 -x {4.0 0.0 -1 ------- null}
+ -t 0.254 -s 0 -d 2 -p cbr -e 512 -c 0 -i 61 -a 0 -x {0.1 4.1 54 ------- null}
+ -t 0.255 -s 0 -d 2 -p cbr -e 512 -c 0 -i 62 -a 0 -x {0.1 4.1 55 ------- null}
d -t 0.255 -s 0 -d 2 -p cbr -e 512 -c 0 -i 62 -a 0 -x {0.1 4.1 55 ------- null}
+ -t 0.256 -s 0 -d 2 -p cbr -e 512 -c 0 -i 63 -a 0 -x {0.1 4.1 56 ------- null}
d -t 0.256 -s 0 -d 2 -p cbr -e 512 -c 0 -i 63 -a 0 -x {0.1 4.1 56 ------- null}
+ -t 0.257 -s 0 -d 2 -p cbr -e 512 -c 0 -i 64 -a 0 -x {0.1 4.1 57 ------- null}
d -t 0.257 -s 0 -d 2 -p cbr -e 512 -c 0 -i 64 -a 0 -x {0.1 4.1 57 ------- null}
- -t 0.257152 -s 0 -d 2 -p cbr -e 512 -c 0 -i 12 -a 0 -x {0.1 4.1 6 ------- null}
h -t 0.257152 -s 0 -d 2 -p cbr -e 512 -c 0 -i 12 -a 0 -x {0.1 4.1 -1 ------- null}
+ -t 0.258 -s 0 -d 2 -p cbr -e 512 -c 0 -i 65 -a 0 -x {0.1 4.1 58 ------- null}
- -t 0.258576 -s 2 -d 3 -p cbr -e 512 -c 0 -i 9 -a 0 -x {0.1 4.1 3 ------- null}
h -t 0.258576 -s 2 -d 3 -p cbr -e 512 -c 0 -i 9 -a 0 -x {0.1 4.1 -1 ------- null}
r -t 0.25896 -s 0 -d 2 -p cbr -e 512 -c 0 -i 10 -a 0 -x {0.1 4.1 4 ------- null}
+ -t 0.25896 -s 2 -d 3 -p cbr -e 512 -c 0 -i 10 -a 0 -x {0.1 4.1 4 ------- null}
+ -t 0.259 -s 0 -d 2 -p cbr -e 512 -c 0 -i 66 -a 0 -x {0.1 4.1 59 ------- null}
d -t 0.259 -s 0 -d 2 -p cbr -e 512 -c 0 -i 66 -a 0 -x {0.1 4.1 59 ------- null}
+ -t 0.26 -s 0 -d 2 -p cbr -e 512 -c 0 -i 67 -a 0 -x {0.1 4.1 60 ------- null}
d -t 0.26 -s 0 -d 2 -p cbr -e 512 -c 0 -i 67 -a 0 -x {0.1 4.1 60 ------- null}
r -t 0.260384 -s 2 -d 3 -p cbr -e 512 -c 0 -i 7 -a 0 -x {0.1 4.1 1 ------- null}
+ -t 0.260384 -s 3 -d 4 -p cbr -e 512 -c 0 -i 7 -a 0 -x {0.1 4.1 1 ------- null}
- -t 0.260384 -s 3 -d 4 -p cbr -e 512 -c 0 -i 7 -a 0 -x {0.1 4.1 1 ------- null}
h -t 0.260384 -s 3 -d 4 -p cbr -e 512 -c 0 -i 7 -a 0 -x {0.1 4.1 -1 ------- null}
+ -t 0.261 -s 0 -d 2 -p cbr -e 512 -c 0 -i 68 -a 0 -x {0.1 4.1 61 ------- null}
d -t 0.261 -s 0 -d 2 -p cbr -e 512 -c 0 -i 68 -a 0 -x {0.1 4.1 61 ------- null}
r -t 0.262 -s 3 -d 5 -p ping -e 500 -c 2 -i 6 -a 2 -x {1.0 5.0 -1 ------- null}
+ -t 0.262 -s 5 -d 3 -p ping -e 500 -c 0 -i 69 -a 0 -x {5.0 1.0 -1 ------- null}
- -t 0.262 -s 5 -d 3 -p ping -e 500 -c 0 -i 69 -a 0 -x {5.0 1.0 -1 ------- null}
h -t 0.262 -s 5 -d 3 -p ping -e 500 -c 0 -i 69 -a 0 -x {5.0 1.0 -1 ------- null}
+ -t 0.262 -s 0 -d 2 -p cbr -e 512 -c 0 -i 70 -a 0 -x {0.1 4.1 62 ------- null}
d -t 0.262 -s 0 -d 2 -p cbr -e 512 -c 0 -i 70 -a 0 -x {0.1 4.1 62 ------- null}
+ -t 0.263 -s 0 -d 2 -p cbr -e 512 -c 0 -i 71 -a 0 -x {0.1 4.1 63 ------- null}
d -t 0.263 -s 0 -d 2 -p cbr -e 512 -c 0 -i 71 -a 0 -x {0.1 4.1 63 ------- null}
+ -t 0.264 -s 0 -d 2 -p cbr -e 512 -c 0 -i 72 -a 0 -x {0.1 4.1 64 ------- null}
d -t 0.264 -s 0 -d 2 -p cbr -e 512 -c 0 -i 72 -a 0 -x {0.1 4.1 64 ------- null}
+ -t 0.265 -s 0 -d 2 -p cbr -e 512 -c 0 -i 73 -a 0 -x {0.1 4.1 65 ------- null}
d -t 0.265 -s 0 -d 2 -p cbr -e 512 -c 0 -i 73 -a 0 -x {0.1 4.1 65 ------- null}
- -t 0.265344 -s 0 -d 2 -p cbr -e 512 -c 0 -i 13 -a 0 -x {0.1 4.1 7 ------- null}
h -t 0.265344 -s 0 -d 2 -p cbr -e 512 -c 0 -i 13 -a 0 -x {0.1 4.1 -1 ------- null}
+ -t 0.266 -s 0 -d 2 -p cbr -e 512 -c 0 -i 74 -a 0 -x {0.1 4.1 66 ------- null}
- -t 0.266768 -s 2 -d 3 -p cbr -e 512 -c 0 -i 10 -a 0 -x {0.1 4.1 4 ------- null}
h -t 0.266768 -s 2 -d 3 -p cbr -e 512 -c 0 -i 10 -a 0 -x {0.1 4.1 -1 ------- null}
+ -t 0.267 -s 0 -d 2 -p cbr -e 512 -c 0 -i 75 -a 0 -x {0.1 4.1 67 ------- null}
d -t 0.267 -s 0 -d 2 -p cbr -e 512 -c 0 -i 75 -a 0 -x {0.1 4.1 67 ------- null}
r -t 0.267152 -s 0 -d 2 -p cbr -e 512 -c 0 -i 11 -a 0 -x {0.1 4.1 5 ------- null}
+ -t 0.267152 -s 2 -d 3 -p cbr -e 512 -c 0 -i 11 -a 0 -x {0.1 4.1 5 ------- null}
+ -t 0.268 -s 0 -d 2 -p cbr -e 512 -c 0 -i 76 -a 0 -x {0.1 4.1 68 ------- null}
d -t 0.268 -s 0 -d 2 -p cbr -e 512 -c 0 -i 76 -a 0 -x {0.1 4.1 68 ------- null}
r -t 0.268576 -s 2 -d 3 -p cbr -e 512 -c 0 -i 8 -a 0 -x {0.1 4.1 2 ------- null}
+ -t 0.268576 -s 3 -d 4 -p cbr -e 512 -c 0 -i 8 -a 0 -x {0.1 4.1 2 ------- null}
- -t 0.268576 -s 3 -d 4 -p cbr -e 512 -c 0 -i 8 -a 0 -x {0.1 4.1 2 ------- null}
h -t 0.268576 -s 3 -d 4 -p cbr -e 512 -c 0 -i 8 -a 0 -x {0.1 4.1 -1 ------- null}
+ -t 0.269 -s 0 -d 2 -p cbr -e 512 -c 0 -i 77 -a 0 -x {0.1 4.1 69 ------- null}
d -t 0.269 -s 0 -d 2 -p cbr -e 512 -c 0 -i 77 -a 0 -x {0.1 4.1 69 ------- null}
+ -t 0.27 -s 0 -d 2 -p cbr -e 512 -c 0 -i 78 -a 0 -x {0.1 4.1 70 ------- null}
d -t 0.27 -s 0 -d 2 -p cbr -e 512 -c 0 -i 78 -a 0 -x {0.1 4.1 70 ------- null}
r -t 0.270384 -s 3 -d 4 -p cbr -e 512 -c 0 -i 5 -a 0 -x {0.1 4.1 0 ------- null}
+ -t 0.271 -s 0 -d 2 -p cbr -e 512 -c 0 -i 79 -a 0 -x {0.1 4.1 71 ------- null}
d -t 0.271 -s 0 -d 2 -p cbr -e 512 -c 0 -i 79 -a 0 -x {0.1 4.1 71 ------- null}
r -t 0.272 -s 4 -d 3 -p ping -e 500 -c 0 -i 60 -a 0 -x {4.0 0.0 -1 ------- null}
+ -t 0.272 -s 3 -d 2 -p ping -e 500 -c 0 -i 60 -a 0 -x {4.0 0.0 -1 ------- null}
- -t 0.272 -s 3 -d 2 -p ping -e 500 -c 0 -i 60 -a 0 -x {4.0 0.0 -1 ------- null}
h -t 0.272 -s 3 -d 2 -p ping -e 500 -c 0 -i 60 -a 0 -x {4.0 0.0 -1 ------- null}
+ -t 0.272 -s 0 -d 2 -p cbr -e 512 -c 0 -i 80 -a 0 -x {0.1 4.1 72 ------- null}
d -t 0.272 -s 0 -d 2 -p cbr -e 512 -c 0 -i 80 -a 0 -x {0.1 4.1 72 ------- null}
+ -t 0.273 -s 0 -d 2 -p cbr -e 512 -c 0 -i 81 -a 0 -x {0.1 4.1 73 ------- null}
d -t 0.273 -s 0 -d 2 -p cbr -e 512 -c 0 -i 81 -a 0 -x {0.1 4.1 73 ------- null}
- -t 0.273536 -s 0 -d 2 -p cbr -e 512 -c 0 -i 14 -a 0 -x {0.1 4.1 8 ------- null}
h -t 0.273536 -s 0 -d 2 -p cbr -e 512 -c 0 -i 14 -a 0 -x {0.1 4.1 -1 ------- null}
+ -t 0.274 -s 0 -d 2 -p cbr -e 512 -c 0 -i 82 -a 0 -x {0.1 4.1 74 ------- null}
- -t 0.27496 -s 2 -d 3 -p cbr -e 512 -c 0 -i 11 -a 0 -x {0.1 4.1 5 ------- null}
h -t 0.27496 -s 2 -d 3 -p cbr -e 512 -c 0 -i 11 -a 0 -x {0.1 4.1 -1 ------- null}
+ -t 0.275 -s 0 -d 2 -p cbr -e 512 -c 0 -i 83 -a 0 -x {0.1 4.1 75 ------- null}
d -t 0.275 -s 0 -d 2 -p cbr -e 512 -c 0 -i 83 -a 0 -x {0.1 4.1 75 ------- null}
r -t 0.275344 -s 0 -d 2 -p cbr -e 512 -c 0 -i 12 -a 0 -x {0.1 4.1 6 ------- null}
+ -t 0.275344 -s 2 -d 3 -p cbr -e 512 -c 0 -i 12 -a 0 -x {0.1 4.1 6 ------- null}
+ -t 0.276 -s 0 -d 2 -p cbr -e 512 -c 0 -i 84 -a 0 -x {0.1 4.1 76 ------- null}
d -t 0.276 -s 0 -d 2 -p cbr -e 512 -c 0 -i 84 -a 0 -x {0.1 4.1 76 ------- null}
r -t 0.276768 -s 2 -d 3 -p cbr -e 512 -c 0 -i 9 -a 0 -x {0.1 4.1 3 ------- null}
+ -t 0.276768 -s 3 -d 4 -p cbr -e 512 -c 0 -i 9 -a 0 -x {0.1 4.1 3 ------- null}
- -t 0.276768 -s 3 -d 4 -p cbr -e 512 -c 0 -i 9 -a 0 -x {0.1 4.1 3 ------- null}
h -t 0.276768 -s 3 -d 4 -p cbr -e 512 -c 0 -i 9 -a 0 -x {0.1 4.1 -1 ------- null}
+ -t 0.277 -s 0 -d 2 -p cbr -e 512 -c 0 -i 85 -a 0 -x {0.1 4.1 77 ------- null}
d -t 0.277 -s 0 -d 2 -p cbr -e 512 -c 0 -i 85 -a 0 -x {0.1 4.1 77 ------- null}
+ -t 0.278 -s 0 -d 2 -p cbr -e 512 -c 0 -i 86 -a 0 -x {0.1 4.1 78 ------- null}
d -t 0.278 -s 0 -d 2 -p cbr -e 512 -c 0 -i 86 -a 0 -x {0.1 4.1 78 ------- null}
r -t 0.278576 -s 3 -d 4 -p cbr -e 512 -c 0 -i 7 -a 0 -x {0.1 4.1 1 ------- null}
+ -t 0.279 -s 0 -d 2 -p cbr -e 512 -c 0 -i 87 -a 0 -x {0.1 4.1 79 ------- null}
d -t 0.279 -s 0 -d 2 -p cbr -e 512 -c 0 -i 87 -a 0 -x {0.1 4.1 79 ------- null}
r -t 0.28 -s 5 -d 3 -p ping -e 500 -c 0 -i 69 -a 0 -x {5.0 1.0 -1 ------- null}
+ -t 0.28 -s 3 -d 2 -p ping -e 500 -c 0 -i 69 -a 0 -x {5.0 1.0 -1 ------- null}
- -t 0.28 -s 3 -d 2 -p ping -e 500 -c 0 -i 69 -a 0 -x {5.0 1.0 -1 ------- null}
h -t 0.28 -s 3 -d 2 -p ping -e 500 -c 0 -i 69 -a 0 -x {5.0 1.0 -1 ------- null}
+ -t 0.28 -s 0 -d 2 -p cbr -e 512 -c 0 -i 88 -a 0 -x {0.1 4.1 80 ------- null}
d -t 0.28 -s 0 -d 2 -p cbr -e 512 -c 0 -i 88 -a 0 -x {0.1 4.1 80 ------- null}
+ -t 0.281 -s 0 -d 2 -p cbr -e 512 -c 0 -i 89 -a 0 -x {0.1 4.1 81 ------- null}
d -t 0.281 -s 0 -d 2 -p cbr -e 512 -c 0 -i 89 -a 0 -x {0.1 4.1 81 ------- null}
- -t 0.281728 -s 0 -d 2 -p cbr -e 512 -c 0 -i 15 -a 0 -x {0.1 4.1 9 ------- null}
h -t 0.281728 -s 0 -d 2 -p cbr -e 512 -c 0 -i 15 -a 0 -x {0.1 4.1 -1 ------- null}
+ -t 0.282 -s 0 -d 2 -p cbr -e 512 -c 0 -i 90 -a 0 -x {0.1 4.1 82 ------- null}
+ -t 0.283 -s 0 -d 2 -p cbr -e 512 -c 0 -i 91 -a 0 -x {0.1 4.1 83 ------- null}
d -t 0.283 -s 0 -d 2 -p cbr -e 512 -c 0 -i 91 -a 0 -x {0.1 4.1 83 ------- null}
- -t 0.283152 -s 2 -d 3 -p cbr -e 512 -c 0 -i 12 -a 0 -x {0.1 4.1 6 ------- null}
h -t 0.283152 -s 2 -d 3 -p cbr -e 512 -c 0 -i 12 -a 0 -x {0.1 4.1 -1 ------- null}
r -t 0.283536 -s 0 -d 2 -p cbr -e 512 -c 0 -i 13 -a 0 -x {0.1 4.1 7 ------- null}
+ -t 0.283536 -s 2 -d 3 -p cbr -e 512 -c 0 -i 13 -a 0 -x {0.1 4.1 7 ------- null}
+ -t 0.284 -s 0 -d 2 -p cbr -e 512 -c 0 -i 92 -a 0 -x {0.1 4.1 84 ------- null}
d -t 0.284 -s 0 -d 2 -p cbr -e 512 -c 0 -i 92 -a 0 -x {0.1 4.1 84 ------- null}
r -t 0.28496 -s 2 -d 3 -p cbr -e 512 -c 0 -i 10 -a 0 -x {0.1 4.1 4 ------- null}
+ -t 0.28496 -s 3 -d 4 -p cbr -e 512 -c 0 -i 10 -a 0 -x {0.1 4.1 4 ------- null}
- -t 0.28496 -s 3 -d 4 -p cbr -e 512 -c 0 -i 10 -a 0 -x {0.1 4.1 4 ------- null}
h -t 0.28496 -s 3 -d 4 -p cbr -e 512 -c 0 -i 10 -a 0 -x {0.1 4.1 -1 ------- null}
+ -t 0.285 -s 0 -d 2 -p cbr -e 512 -c 0 -i 93 -a 0 -x {0.1 4.1 85 ------- null}
d -t 0.285 -s 0 -d 2 -p cbr -e 512 -c 0 -i 93 -a 0 -x {0.1 4.1 85 ------- null}
+ -t 0.286 -s 0 -d 2 -p cbr -e 512 -c 0 -i 94 -a 0 -x {0.1 4.1 86 ------- null}
d -t 0.286 -s 0 -d 2 -p cbr -e 512 -c 0 -i 94 -a 0 -x {0.1 4.1 86 ------- null}
r -t 0.286768 -s 3 -d 4 -p cbr -e 512 -c 0 -i 8 -a 0 -x {0.1 4.1 2 ------- null}
+ -t 0.287 -s 0 -d 2 -p cbr -e 512 -c 0 -i 95 -a 0 -x {0.1 4.1 87 ------- null}
d -t 0.287 -s 0 -d 2 -p cbr -e 512 -c 0 -i 95 -a 0 -x {0.1 4.1 87 ------- null}
+ -t 0.288 -s 0 -d 2 -p cbr -e 512 -c 0 -i 96 -a 0 -x {0.1 4.1 88 ------- null}
d -t 0.288 -s 0 -d 2 -p cbr -e 512 -c 0 -i 96 -a 0 -x {0.1 4.1 88 ------- null}
+ -t 0.289 -s 0 -d 2 -p cbr -e 512 -c 0 -i 97 -a 0 -x {0.1 4.1 89 ------- null}
d -t 0.289 -s 0 -d 2 -p cbr -e 512 -c 0 -i 97 -a 0 -x {0.1 4.1 89 ------- null}
- -t 0.28992 -s 0 -d 2 -p cbr -e 512 -c 0 -i 16 -a 0 -x {0.1 4.1 10 ------- null}
h -t 0.28992 -s 0 -d 2 -p cbr -e 512 -c 0 -i 16 -a 0 -x {0.1 4.1 -1 ------- null}
r -t 0.29 -s 3 -d 2 -p ping -e 500 -c 0 -i 60 -a 0 -x {4.0 0.0 -1 ------- null}
+ -t 0.29 -s 2 -d 0 -p ping -e 500 -c 0 -i 60 -a 0 -x {4.0 0.0 -1 ------- null}
- -t 0.29 -s 2 -d 0 -p ping -e 500 -c 0 -i 60 -a 0 -x {4.0 0.0 -1 ------- null}
h -t 0.29 -s 2 -d 0 -p ping -e 500 -c 0 -i 60 -a 0 -x {4.0 0.0 -1 ------- null}
+ -t 0.29 -s 0 -d 2 -p cbr -e 512 -c 0 -i 98 -a 0 -x {0.1 4.1 90 ------- null}
+ -t 0.291 -s 0 -d 2 -p cbr -e 512 -c 0 -i 99 -a 0 -x {0.1 4.1 91 ------- null}
d -t 0.291 -s 0 -d 2 -p cbr -e 512 -c 0 -i 99 -a 0 -x {0.1 4.1 91 ------- null}
- -t 0.291344 -s 2 -d 3 -p cbr -e 512 -c 0 -i 13 -a 0 -x {0.1 4.1 7 ------- null}
h -t 0.291344 -s 2 -d 3 -p cbr -e 512 -c 0 -i 13 -a 0 -x {0.1 4.1 -1 ------- null}
r -t 0.291728 -s 0 -d 2 -p cbr -e 512 -c 0 -i 14 -a 0 -x {0.1 4.1 8 ------- null}
+ -t 0.291728 -s 2 -d 3 -p cbr -e 512 -c 0 -i 14 -a 0 -x {0.1 4.1 8 ------- null}
+ -t 0.292 -s 0 -d 2 -p cbr -e 512 -c 0 -i 100 -a 0 -x {0.1 4.1 92 ------- null}
d -t 0.292 -s 0 -d 2 -p cbr -e 512 -c 0 -i 100 -a 0 -x {0.1 4.1 92 ------- null}
+ -t 0.293 -s 0 -d 2 -p cbr -e 512 -c 0 -i 101 -a 0 -x {0.1 4.1 93 ------- null}
d -t 0.293 -s 0 -d 2 -p cbr -e 512 -c 0 -i 101 -a 0 -x {0.1 4.1 93 ------- null}
r -t 0.293152 -s 2 -d 3 -p cbr -e 512 -c 0 -i 11 -a 0 -x {0.1 4.1 5 ------- null}
+ -t 0.293152 -s 3 -d 4 -p cbr -e 512 -c 0 -i 11 -a 0 -x {0.1 4.1 5 ------- null}
- -t 0.293152 -s 3 -d 4 -p cbr -e 512 -c 0 -i 11 -a 0 -x {0.1 4.1 5 ------- null}
h -t 0.293152 -s 3 -d 4 -p cbr -e 512 -c 0 -i 11 -a 0 -x {0.1 4.1 -1 ------- null}
+ -t 0.294 -s 0 -d 2 -p cbr -e 512 -c 0 -i 102 -a 0 -x {0.1 4.1 94 ------- null}
d -t 0.294 -s 0 -d 2 -p cbr -e 512 -c 0 -i 102 -a 0 -x {0.1 4.1 94 ------- null}
r -t 0.29496 -s 3 -d 4 -p cbr -e 512 -c 0 -i 9 -a 0 -x {0.1 4.1 3 ------- null}
+ -t 0.295 -s 0 -d 2 -p cbr -e 512 -c 0 -i 103 -a 0 -x {0.1 4.1 95 ------- null}
d -t 0.295 -s 0 -d 2 -p cbr -e 512 -c 0 -i 103 -a 0 -x {0.1 4.1 95 ------- null}
+ -t 0.296 -s 0 -d 2 -p cbr -e 512 -c 0 -i 104 -a 0 -x {0.1 4.1 96 ------- null}
d -t 0.296 -s 0 -d 2 -p cbr -e 512 -c 0 -i 104 -a 0 -x {0.1 4.1 96 ------- null}
+ -t 0.297 -s 0 -d 2 -p cbr -e 512 -c 0 -i 105 -a 0 -x {0.1 4.1 97 ------- null}
d -t 0.297 -s 0 -d 2 -p cbr -e 512 -c 0 -i 105 -a 0 -x {0.1 4.1 97 ------- null}
r -t 0.298 -s 3 -d 2 -p ping -e 500 -c 0 -i 69 -a 0 -x {5.0 1.0 -1 ------- null}
+ -t 0.298 -s 2 -d 1 -p ping -e 500 -c 0 -i 69 -a 0 -x {5.0 1.0 -1 ------- null}
- -t 0.298 -s 2 -d 1 -p ping -e 500 -c 0 -i 69 -a 0 -x {5.0 1.0 -1 ------- null}
h -t 0.298 -s 2 -d 1 -p ping -e 500 -c 0 -i 69 -a 0 -x {5.0 1.0 -1 ------- null}
+ -t 0.298 -s 0 -d 2 -p cbr -e 512 -c 0 -i 106 -a 0 -x {0.1 4.1 98 ------- null}
d -t 0.298 -s 0 -d 2 -p cbr -e 512 -c 0 -i 106 -a 0 -x {0.1 4.1 98 ------- null}
- -t 0.298112 -s 0 -d 2 -p cbr -e 512 -c 0 -i 17 -a 0 -x {0.1 4.1 11 ------- null}
h -t 0.298112 -s 0 -d 2 -p cbr -e 512 -c 0 -i 17 -a 0 -x {0.1 4.1 -1 ------- null}
+ -t 0.299 -s 0 -d 2 -p cbr -e 512 -c 0 -i 107 -a 0 -x {0.1 4.1 99 ------- null}
- -t 0.299536 -s 2 -d 3 -p cbr -e 512 -c 0 -i 14 -a 0 -x {0.1 4.1 8 ------- null}
h -t 0.299536 -s 2 -d 3 -p cbr -e 512 -c 0 -i 14 -a 0 -x {0.1 4.1 -1 ------- null}
r -t 0.29992 -s 0 -d 2 -p cbr -e 512 -c 0 -i 15 -a 0 -x {0.1 4.1 9 ------- null}
+ -t 0.29992 -s 2 -d 3 -p cbr -e 512 -c 0 -i 15 -a 0 -x {0.1 4.1 9 ------- null}
+ -t 0.3 -s 0 -d 2 -p ping -e 500 -c 1 -i 108 -a 1 -x {0.0 4.0 -1 ------- null}
d -t 0.3 -s 0 -d 2 -p ping -e 500 -c 1 -i 108 -a 1 -x {0.0 4.0 -1 ------- null}
+ -t 0.3 -s 1 -d 2 -p ping -e 500 -c 2 -i 109 -a 2 -x {1.0 5.0 -1 ------- null}
- -t 0.3 -s 1 -d 2 -p ping -e 500 -c 2 -i 109 -a 2 -x {1.0 5.0 -1 ------- null}
h -t 0.3 -s 1 -d 2 -p ping -e 500 -c 2 -i 109 -a 2 -x {1.0 5.0 -1 ------- null}
+ -t 0.3 -s 0 -d 2 -p cbr -e 512 -c 0 -i 110 -a 0 -x {0.1 4.1 100 ------- null}
d -t 0.3 -s 0 -d 2 -p cbr -e 512 -c 0 -i 110 -a 0 -x {0.1 4.1 100 ------- null}
+ -t 0.301 -s 0 -d 2 -p cbr -e 512 -c 0 -i 111 -a 0 -x {0.1 4.1 101 ------- null}
d -t 0.301 -s 0 -d 2 -p cbr -e 512 -c 0 -i 111 -a 0 -x {0.1 4.1 101 ------- null}
r -t 0.301344 -s 2 -d 3 -p cbr -e 512 -c 0 -i 12 -a 0 -x {0.1 4.1 6 ------- null}
+ -t 0.301344 -s 3 -d 4 -p cbr -e 512 -c 0 -i 12 -a 0 -x {0.1 4.1 6 ------- null}
- -t 0.301344 -s 3 -d 4 -p cbr -e 512 -c 0 -i 12 -a 0 -x {0.1 4.1 6 ------- null}
h -t 0.301344 -s 3 -d 4 -p cbr -e 512 -c 0 -i 12 -a 0 -x {0.1 4.1 -1 ------- null}
+ -t 0.302 -s 0 -d 2 -p cbr -e 512 -c 0 -i 112 -a 0 -x {0.1 4.1 102 ------- null}
d -t 0.302 -s 0 -d 2 -p cbr -e 512 -c 0 -i 112 -a 0 -x {0.1 4.1 102 ------- null}
+ -t 0.303 -s 0 -d 2 -p cbr -e 512 -c 0 -i 113 -a 0 -x {0.1 4.1 103 ------- null}
d -t 0.303 -s 0 -d 2 -p cbr -e 512 -c 0 -i 113 -a 0 -x {0.1 4.1 103 ------- null}
r -t 0.303152 -s 3 -d 4 -p cbr -e 512 -c 0 -i 10 -a 0 -x {0.1 4.1 4 ------- null}
+ -t 0.304 -s 0 -d 2 -p cbr -e 512 -c 0 -i 114 -a 0 -x {0.1 4.1 104 ------- null}
d -t 0.304 -s 0 -d 2 -p cbr -e 512 -c 0 -i 114 -a 0 -x {0.1 4.1 104 ------- null}
+ -t 0.305 -s 0 -d 2 -p cbr -e 512 -c 0 -i 115 -a 0 -x {0.1 4.1 105 ------- null}
d -t 0.305 -s 0 -d 2 -p cbr -e 512 -c 0 -i 115 -a 0 -x {0.1 4.1 105 ------- null}
+ -t 0.306 -s 0 -d 2 -p cbr -e 512 -c 0 -i 116 -a 0 -x {0.1 4.1 106 ------- null}
d -t 0.306 -s 0 -d 2 -p cbr -e 512 -c 0 -i 116 -a 0 -x {0.1 4.1 106 ------- null}
- -t 0.306304 -s 0 -d 2 -p cbr -e 512 -c 0 -i 18 -a 0 -x {0.1 4.1 12 ------- null}
h -t 0.306304 -s 0 -d 2 -p cbr -e 512 -c 0 -i 18 -a 0 -x {0.1 4.1 -1 ------- null}
+ -t 0.307 -s 0 -d 2 -p cbr -e 512 -c 0 -i 117 -a 0 -x {0.1 4.1 107 ------- null}
- -t 0.307728 -s 2 -d 3 -p cbr -e 512 -c 0 -i 15 -a 0 -x {0.1 4.1 9 ------- null}
h -t 0.307728 -s 2 -d 3 -p cbr -e 512 -c 0 -i 15 -a 0 -x {0.1 4.1 -1 ------- null}
r -t 0.308 -s 2 -d 0 -p ping -e 500 -c 0 -i 60 -a 0 -x {4.0 0.0 -1 ------- null}
+ -t 0.308 -s 0 -d 2 -p cbr -e 512 -c 0 -i 118 -a 0 -x {0.1 4.1 108 ------- null}
d -t 0.308 -s 0 -d 2 -p cbr -e 512 -c 0 -i 118 -a 0 -x {0.1 4.1 108 ------- null}
r -t 0.308112 -s 0 -d 2 -p cbr -e 512 -c 0 -i 16 -a 0 -x {0.1 4.1 10 ------- null}
+ -t 0.308112 -s 2 -d 3 -p cbr -e 512 -c 0 -i 16 -a 0 -x {0.1 4.1 10 ------- null}
+ -t 0.309 -s 0 -d 2 -p cbr -e 512 -c 0 -i 119 -a 0 -x {0.1 4.1 109 ------- null}
d -t 0.309 -s 0 -d 2 -p cbr -e 512 -c 0 -i 119 -a 0 -x {0.1 4.1 109 ------- null}
r -t 0.309536 -s 2 -d 3 -p cbr -e 512 -c 0 -i 13 -a 0 -x {0.1 4.1 7 ------- null}
+ -t 0.309536 -s 3 -d 4 -p cbr -e 512 -c 0 -i 13 -a 0 -x {0.1 4.1 7 ------- null}
- -t 0.309536 -s 3 -d 4 -p cbr -e 512 -c 0 -i 13 -a 0 -x {0.1 4.1 7 ------- null}