+ 0.1 0 2 ping 500 ------- 1 0.0 4.0 -1 0
- 0.1 0 2 ping 500 ------- 1 0.0 4.0 -1 0
+ 0.1 1 2 ping 500 ------- 2 1.0 5.0 -1 1
- 0.1 1 2 ping 500 ------- 2 1.0 5.0 -1 1
r 0.118 0 2 ping 500 ------- 1 0.0 4.0 -1 0
+ 0.118 2 3 ping 500 ------- 1 0.0 4.0 -1 0
- 0.118 2 3 ping 500 ------- 1 0.0 4.0 -1 0
r 0.118 1 2 ping 500 ------- 2 1.0 5.0 -1 1
+ 0.118 2 3 ping 500 ------- 2 1.0 5.0 -1 1
- 0.126 2 3 ping 500 ------- 2 1.0 5.0 -1 1
r 0.136 2 3 ping 500 ------- 1 0.0 4.0 -1 0
+ 0.136 3 4 ping 500 ------- 1 0.0 4.0 -1 0
- 0.136 3 4 ping 500 ------- 1 0.0 4.0 -1 0
r 0.144 2 3 ping 500 ------- 2 1.0 5.0 -1 1
+ 0.144 3 5 ping 500 ------- 2 1.0 5.0 -1 1
- 0.144 3 5 ping 500 ------- 2 1.0 5.0 -1 1
r 0.154 3 4 ping 500 ------- 1 0.0 4.0 -1 0
+ 0.154 4 3 ping 500 ------- 0 4.0 0.0 -1 2
- 0.154 4 3 ping 500 ------- 0 4.0 0.0 -1 2
r 0.162 3 5 ping 500 ------- 2 1.0 5.0 -1 1
+ 0.162 5 3 ping 500 ------- 0 5.0 1.0 -1 3
- 0.162 5 3 ping 500 ------- 0 5.0 1.0 -1 3
r 0.172 4 3 ping 500 ------- 0 4.0 0.0 -1 2
+ 0.172 3 2 ping 500 ------- 0 4.0 0.0 -1 2
- 0.172 3 2 ping 500 ------- 0 4.0 0.0 -1 2
r 0.18 5 3 ping 500 ------- 0 5.0 1.0 -1 3
+ 0.18 3 2 ping 500 ------- 0 5.0 1.0 -1 3
- 0.18 3 2 ping 500 ------- 0 5.0 1.0 -1 3
r 0.19 3 2 ping 500 ------- 0 4.0 0.0 -1 2
+ 0.19 2 0 ping 500 ------- 0 4.0 0.0 -1 2
- 0.19 2 0 ping 500 ------- 0 4.0 0.0 -1 2
r 0.198 3 2 ping 500 ------- 0 5.0 1.0 -1 3
+ 0.198 2 1 ping 500 ------- 0 5.0 1.0 -1 3
- 0.198 2 1 ping 500 ------- 0 5.0 1.0 -1 3
+ 0.2 0 2 ping 500 ------- 1 0.0 4.0 -1 4
- 0.2 0 2 ping 500 ------- 1 0.0 4.0 -1 4
+ 0.2 0 2 cbr 512 ------- 0 0.1 4.1 0 5
+ 0.2 1 2 ping 500 ------- 2 1.0 5.0 -1 6
- 0.2 1 2 ping 500 ------- 2 1.0 5.0 -1 6
+ 0.201 0 2 cbr 512 ------- 0 0.1 4.1 1 7
+ 0.202 0 2 cbr 512 ------- 0 0.1 4.1 2 8
+ 0.203 0 2 cbr 512 ------- 0 0.1 4.1 3 9
+ 0.204 0 2 cbr 512 ------- 0 0.1 4.1 4 10
+ 0.205 0 2 cbr 512 ------- 0 0.1 4.1 5 11
+ 0.206 0 2 cbr 512 ------- 0 0.1 4.1 6 12
+ 0.207 0 2 cbr 512 ------- 0 0.1 4.1 7 13
- 0.208 0 2 cbr 512 ------- 0 0.1 4.1 0 5
+ 0.208 0 2 cbr 512 ------- 0 0.1 4.1 8 14
r 0.208 2 0 ping 500 ------- 0 4.0 0.0 -1 2
+ 0.209 0 2 cbr 512 ------- 0 0.1 4.1 9 15
+ 0.21 0 2 cbr 512 ------- 0 0.1 4.1 10 16
+ 0.211 0 2 cbr 512 ------- 0 0.1 4.1 11 17
+ 0.212 0 2 cbr 512 ------- 0 0.1 4.1 12 18
+ 0.213 0 2 cbr 512 ------- 0 0.1 4.1 13 19
+ 0.214 0 2 cbr 512 ------- 0 0.1 4.1 14 20
+ 0.215 0 2 cbr 512 ------- 0 0.1 4.1 15 21
+ 0.216 0 2 cbr 512 ------- 0 0.1 4.1 16 22
r 0.216 2 1 ping 500 ------- 0 5.0 1.0 -1 3
- 0.216192 0 2 cbr 512 ------- 0 0.1 4.1 1 7
+ 0.217 0 2 cbr 512 ------- 0 0.1 4.1 17 23
r 0.218 0 2 ping 500 ------- 1 0.0 4.0 -1 4
+ 0.218 2 3 ping 500 ------- 1 0.0 4.0 -1 4
- 0.218 2 3 ping 500 ------- 1 0.0 4.0 -1 4
r 0.218 1 2 ping 500 ------- 2 1.0 5.0 -1 6
+ 0.218 2 3 ping 500 ------- 2 1.0 5.0 -1 6
+ 0.218 0 2 cbr 512 ------- 0 0.1 4.1 18 24
+ 0.219 0 2 cbr 512 ------- 0 0.1 4.1 19 25
+ 0.22 0 2 cbr 512 ------- 0 0.1 4.1 20 26
+ 0.221 0 2 cbr 512 ------- 0 0.1 4.1 21 27
+ 0.222 0 2 cbr 512 ------- 0 0.1 4.1 22 28
+ 0.223 0 2 cbr 512 ------- 0 0.1 4.1 23 29
+ 0.224 0 2 cbr 512 ------- 0 0.1 4.1 24 30
- 0.224384 0 2 cbr 512 ------- 0 0.1 4.1 2 8
+ 0.225 0 2 cbr 512 ------- 0 0.1 4.1 25 31
- 0.226 2 3 ping 500 ------- 2 1.0 5.0 -1 6
+ 0.226 0 2 cbr 512 ------- 0 0.1 4.1 26 32
r 0.226192 0 2 cbr 512 ------- 0 0.1 4.1 0 5
+ 0.226192 2 3 cbr 512 ------- 0 0.1 4.1 0 5
+ 0.227 0 2 cbr 512 ------- 0 0.1 4.1 27 33
+ 0.228 0 2 cbr 512 ------- 0 0.1 4.1 28 34
+ 0.229 0 2 cbr 512 ------- 0 0.1 4.1 29 35
+ 0.23 0 2 cbr 512 ------- 0 0.1 4.1 30 36
+ 0.231 0 2 cbr 512 ------- 0 0.1 4.1 31 37
+ 0.232 0 2 cbr 512 ------- 0 0.1 4.1 32 38
- 0.232576 0 2 cbr 512 ------- 0 0.1 4.1 3 9
+ 0.233 0 2 cbr 512 ------- 0 0.1 4.1 33 39
- 0.234 2 3 cbr 512 ------- 0 0.1 4.1 0 5
+ 0.234 0 2 cbr 512 ------- 0 0.1 4.1 34 40
r 0.234384 0 2 cbr 512 ------- 0 0.1 4.1 1 7
+ 0.234384 2 3 cbr 512 ------- 0 0.1 4.1 1 7
+ 0.235 0 2 cbr 512 ------- 0 0.1 4.1 35 41
r 0.236 2 3 ping 500 ------- 1 0.0 4.0 -1 4
+ 0.236 3 4 ping 500 ------- 1 0.0 4.0 -1 4
- 0.236 3 4 ping 500 ------- 1 0.0 4.0 -1 4
+ 0.236 0 2 cbr 512 ------- 0 0.1 4.1 36 42
+ 0.237 0 2 cbr 512 ------- 0 0.1 4.1 37 43
+ 0.238 0 2 cbr 512 ------- 0 0.1 4.1 38 44
+ 0.239 0 2 cbr 512 ------- 0 0.1 4.1 39 45
+ 0.24 0 2 cbr 512 ------- 0 0.1 4.1 40 46
- 0.240768 0 2 cbr 512 ------- 0 0.1 4.1 4 10
+ 0.241 0 2 cbr 512 ------- 0 0.1 4.1 41 47
+ 0.242 0 2 cbr 512 ------- 0 0.1 4.1 42 48
- 0.242192 2 3 cbr 512 ------- 0 0.1 4.1 1 7
r 0.242576 0 2 cbr 512 ------- 0 0.1 4.1 2 8
+ 0.242576 2 3 cbr 512 ------- 0 0.1 4.1 2 8
+ 0.243 0 2 cbr 512 ------- 0 0.1 4.1 43 49
r 0.244 2 3 ping 500 ------- 2 1.0 5.0 -1 6
+ 0.244 3 5 ping 500 ------- 2 1.0 5.0 -1 6
- 0.244 3 5 ping 500 ------- 2 1.0 5.0 -1 6
+ 0.244 0 2 cbr 512 ------- 0 0.1 4.1 44 50
+ 0.245 0 2 cbr 512 ------- 0 0.1 4.1 45 51
+ 0.246 0 2 cbr 512 ------- 0 0.1 4.1 46 52
+ 0.247 0 2 cbr 512 ------- 0 0.1 4.1 47 53
+ 0.248 0 2 cbr 512 ------- 0 0.1 4.1 48 54
- 0.24896 0 2 cbr 512 ------- 0 0.1 4.1 5 11
+ 0.249 0 2 cbr 512 ------- 0 0.1 4.1 49 55
+ 0.25 0 2 cbr 512 ------- 0 0.1 4.1 50 56
- 0.250384 2 3 cbr 512 ------- 0 0.1 4.1 2 8
r 0.250768 0 2 cbr 512 ------- 0 0.1 4.1 3 9
+ 0.250768 2 3 cbr 512 ------- 0 0.1 4.1 3 9
+ 0.251 0 2 cbr 512 ------- 0 0.1 4.1 51 57
+ 0.252 0 2 cbr 512 ------- 0 0.1 4.1 52 58
r 0.252192 2 3 cbr 512 ------- 0 0.1 4.1 0 5
+ 0.252192 3 4 cbr 512 ------- 0 0.1 4.1 0 5
- 0.252192 3 4 cbr 512 ------- 0 0.1 4.1 0 5
+ 0.253 0 2 cbr 512 ------- 0 0.1 4.1 53 59
r 0.254 3 4 ping 500 ------- 1 0.0 4.0 -1 4
+ 0.254 4 3 ping 500 ------- 0 4.0 0.0 -1 60
- 0.254 4 3 ping 500 ------- 0 4.0 0.0 -1 60
+ 0.254 0 2 cbr 512 ------- 0 0.1 4.1 54 61
+ 0.255 0 2 cbr 512 ------- 0 0.1 4.1 55 62
d 0.255 0 2 cbr 512 ------- 0 0.1 4.1 55 62
+ 0.256 0 2 cbr 512 ------- 0 0.1 4.1 56 63
d 0.256 0 2 cbr 512 ------- 0 0.1 4.1 56 63
+ 0.257 0 2 cbr 512 ------- 0 0.1 4.1 57 64
d 0.257 0 2 cbr 512 ------- 0 0.1 4.1 57 64
- 0.257152 0 2 cbr 512 ------- 0 0.1 4.1 6 12
+ 0.258 0 2 cbr 512 ------- 0 0.1 4.1 58 65
- 0.258576 2 3 cbr 512 ------- 0 0.1 4.1 3 9
r 0.25896 0 2 cbr 512 ------- 0 0.1 4.1 4 10
+ 0.25896 2 3 cbr 512 ------- 0 0.1 4.1 4 10
+ 0.259 0 2 cbr 512 ------- 0 0.1 4.1 59 66
d 0.259 0 2 cbr 512 ------- 0 0.1 4.1 59 66
+ 0.26 0 2 cbr 512 ------- 0 0.1 4.1 60 67
d 0.26 0 2 cbr 512 ------- 0 0.1 4.1 60 67
r 0.260384 2 3 cbr 512 ------- 0 0.1 4.1 1 7
+ 0.260384 3 4 cbr 512 ------- 0 0.1 4.1 1 7
- 0.260384 3 4 cbr 512 ------- 0 0.1 4.1 1 7
+ 0.261 0 2 cbr 512 ------- 0 0.1 4.1 61 68
d 0.261 0 2 cbr 512 ------- 0 0.1 4.1 61 68
r 0.262 3 5 ping 500 ------- 2 1.0 5.0 -1 6
+ 0.262 5 3 ping 500 ------- 0 5.0 1.0 -1 69
- 0.262 5 3 ping 500 ------- 0 5.0 1.0 -1 69
+ 0.262 0 2 cbr 512 ------- 0 0.1 4.1 62 70
d 0.262 0 2 cbr 512 ------- 0 0.1 4.1 62 70
+ 0.263 0 2 cbr 512 ------- 0 0.1 4.1 63 71
d 0.263 0 2 cbr 512 ------- 0 0.1 4.1 63 71
+ 0.264 0 2 cbr 512 ------- 0 0.1 4.1 64 72
d 0.264 0 2 cbr 512 ------- 0 0.1 4.1 64 72
+ 0.265 0 2 cbr 512 ------- 0 0.1 4.1 65 73
d 0.265 0 2 cbr 512 ------- 0 0.1 4.1 65 73
- 0.265344 0 2 cbr 512 ------- 0 0.1 4.1 7 13
+ 0.266 0 2 cbr 512 ------- 0 0.1 4.1 66 74
- 0.266768 2 3 cbr 512 ------- 0 0.1 4.1 4 10
+ 0.267 0 2 cbr 512 ------- 0 0.1 4.1 67 75
d 0.267 0 2 cbr 512 ------- 0 0.1 4.1 67 75
r 0.267152 0 2 cbr 512 ------- 0 0.1 4.1 5 11
+ 0.267152 2 3 cbr 512 ------- 0 0.1 4.1 5 11
+ 0.268 0 2 cbr 512 ------- 0 0.1 4.1 68 76
d 0.268 0 2 cbr 512 ------- 0 0.1 4.1 68 76
r 0.268576 2 3 cbr 512 ------- 0 0.1 4.1 2 8
+ 0.268576 3 4 cbr 512 ------- 0 0.1 4.1 2 8
- 0.268576 3 4 cbr 512 ------- 0 0.1 4.1 2 8
+ 0.269 0 2 cbr 512 ------- 0 0.1 4.1 69 77
d 0.269 0 2 cbr 512 ------- 0 0.1 4.1 69 77
+ 0.27 0 2 cbr 512 ------- 0 0.1 4.1 70 78
d 0.27 0 2 cbr 512 ------- 0 0.1 4.1 70 78
r 0.270384 3 4 cbr 512 ------- 0 0.1 4.1 0 5
+ 0.271 0 2 cbr 512 ------- 0 0.1 4.1 71 79
d 0.271 0 2 cbr 512 ------- 0 0.1 4.1 71 79
r 0.272 4 3 ping 500 ------- 0 4.0 0.0 -1 60
+ 0.272 3 2 ping 500 ------- 0 4.0 0.0 -1 60
- 0.272 3 2 ping 500 ------- 0 4.0 0.0 -1 60
+ 0.272 0 2 cbr 512 ------- 0 0.1 4.1 72 80
d 0.272 0 2 cbr 512 ------- 0 0.1 4.1 72 80
+ 0.273 0 2 cbr 512 ------- 0 0.1 4.1 73 81
d 0.273 0 2 cbr 512 ------- 0 0.1 4.1 73 81
- 0.273536 0 2 cbr 512 ------- 0 0.1 4.1 8 14
+ 0.274 0 2 cbr 512 ------- 0 0.1 4.1 74 82
- 0.27496 2 3 cbr 512 ------- 0 0.1 4.1 5 11
+ 0.275 0 2 cbr 512 ------- 0 0.1 4.1 75 83
d 0.275 0 2 cbr 512 ------- 0 0.1 4.1 75 83
r 0.275344 0 2 cbr 512 ------- 0 0.1 4.1 6 12
+ 0.275344 2 3 cbr 512 ------- 0 0.1 4.1 6 12
+ 0.276 0 2 cbr 512 ------- 0 0.1 4.1 76 84
d 0.276 0 2 cbr 512 ------- 0 0.1 4.1 76 84
r 0.276768 2 3 cbr 512 ------- 0 0.1 4.1 3 9
+ 0.276768 3 4 cbr 512 ------- 0 0.1 4.1 3 9
- 0.276768 3 4 cbr 512 ------- 0 0.1 4.1 3 9
+ 0.277 0 2 cbr 512 ------- 0 0.1 4.1 77 85
d 0.277 0 2 cbr 512 ------- 0 0.1 4.1 77 85
+ 0.278 0 2 cbr 512 ------- 0 0.1 4.1 78 86
d 0.278 0 2 cbr 512 ------- 0 0.1 4.1 78 86
r 0.278576 3 4 cbr 512 ------- 0 0.1 4.1 1 7
+ 0.279 0 2 cbr 512 ------- 0 0.1 4.1 79 87
d 0.279 0 2 cbr 512 ------- 0 0.1 4.1 79 87
r 0.28 5 3 ping 500 ------- 0 5.0 1.0 -1 69
+ 0.28 3 2 ping 500 ------- 0 5.0 1.0 -1 69
- 0.28 3 2 ping 500 ------- 0 5.0 1.0 -1 69
+ 0.28 0 2 cbr 512 ------- 0 0.1 4.1 80 88
d 0.28 0 2 cbr 512 ------- 0 0.1 4.1 80 88
+ 0.281 0 2 cbr 512 ------- 0 0.1 4.1 81 89
d 0.281 0 2 cbr 512 ------- 0 0.1 4.1 81 89
- 0.281728 0 2 cbr 512 ------- 0 0.1 4.1 9 15
+ 0.282 0 2 cbr 512 ------- 0 0.1 4.1 82 90
+ 0.283 0 2 cbr 512 ------- 0 0.1 4.1 83 91
d 0.283 0 2 cbr 512 ------- 0 0.1 4.1 83 91
- 0.283152 2 3 cbr 512 ------- 0 0.1 4.1 6 12
r 0.283536 0 2 cbr 512 ------- 0 0.1 4.1 7 13
+ 0.283536 2 3 cbr 512 ------- 0 0.1 4.1 7 13
+ 0.284 0 2 cbr 512 ------- 0 0.1 4.1 84 92
d 0.284 0 2 cbr 512 ------- 0 0.1 4.1 84 92
r 0.28496 2 3 cbr 512 ------- 0 0.1 4.1 4 10
+ 0.28496 3 4 cbr 512 ------- 0 0.1 4.1 4 10
- 0.28496 3 4 cbr 512 ------- 0 0.1 4.1 4 10
+ 0.285 0 2 cbr 512 ------- 0 0.1 4.1 85 93
d 0.285 0 2 cbr 512 ------- 0 0.1 4.1 85 93
+ 0.286 0 2 cbr 512 ------- 0 0.1 4.1 86 94
d 0.286 0 2 cbr 512 ------- 0 0.1 4.1 86 94
r 0.286768 3 4 cbr 512 ------- 0 0.1 4.1 2 8
+ 0.287 0 2 cbr 512 ------- 0 0.1 4.1 87 95
d 0.287 0 2 cbr 512 ------- 0 0.1 4.1 87 95
+ 0.288 0 2 cbr 512 ------- 0 0.1 4.1 88 96
d 0.288 0 2 cbr 512 ------- 0 0.1 4.1 88 96
+ 0.289 0 2 cbr 512 ------- 0 0.1 4.1 89 97
d 0.289 0 2 cbr 512 ------- 0 0.1 4.1 89 97
- 0.28992 0 2 cbr 512 ------- 0 0.1 4.1 10 16
r 0.29 3 2 ping 500 ------- 0 4.0 0.0 -1 60
+ 0.29 2 0 ping 500 ------- 0 4.0 0.0 -1 60
- 0.29 2 0 ping 500 ------- 0 4.0 0.0 -1 60
+ 0.29 0 2 cbr 512 ------- 0 0.1 4.1 90 98
+ 0.291 0 2 cbr 512 ------- 0 0.1 4.1 91 99
d 0.291 0 2 cbr 512 ------- 0 0.1 4.1 91 99
- 0.291344 2 3 cbr 512 ------- 0 0.1 4.1 7 13
r 0.291728 0 2 cbr 512 ------- 0 0.1 4.1 8 14
+ 0.291728 2 3 cbr 512 ------- 0 0.1 4.1 8 14
+ 0.292 0 2 cbr 512 ------- 0 0.1 4.1 92 100
d 0.292 0 2 cbr 512 ------- 0 0.1 4.1 92 100
+ 0.293 0 2 cbr 512 ------- 0 0.1 4.1 93 101
d 0.293 0 2 cbr 512 ------- 0 0.1 4.1 93 101
r 0.293152 2 3 cbr 512 ------- 0 0.1 4.1 5 11
+ 0.293152 3 4 cbr 512 ------- 0 0.1 4.1 5 11
- 0.293152 3 4 cbr 512 ------- 0 0.1 4.1 5 11
+ 0.294 0 2 cbr 512 ------- 0 0.1 4.1 94 102
d 0.294 0 2 cbr 512 ------- 0 0.1 4.1 94 102
r 0.29496 3 4 cbr 512 ------- 0 0.1 4.1 3 9
+ 0.295 0 2 cbr 512 ------- 0 0.1 4.1 95 103
d 0.295 0 2 cbr 512 ------- 0 0.1 4.1 95 103
+ 0.296 0 2 cbr 512 ------- 0 0.1 4.1 96 104
d 0.296 0 2 cbr 512 ------- 0 0.1 4.1 96 104
+ 0.297 0 2 cbr 512 ------- 0 0.1 4.1 97 105
d 0.297 0 2 cbr 512 ------- 0 0.1 4.1 97 105
r 0.298 3 2 ping 500 ------- 0 5.0 1.0 -1 69
+ 0.298 2 1 ping 500 ------- 0 5.0 1.0 -1 69
- 0.298 2 1 ping 500 ------- 0 5.0 1.0 -1 69
+ 0.298 0 2 cbr 512 ------- 0 0.1 4.1 98 106
d 0.298 0 2 cbr 512 ------- 0 0.1 4.1 98 106
- 0.298112 0 2 cbr 512 ------- 0 0.1 4.1 11 17
+ 0.299 0 2 cbr 512 ------- 0 0.1 4.1 99 107
- 0.299536 2 3 cbr 512 ------- 0 0.1 4.1 8 14
r 0.29992 0 2 cbr 512 ------- 0 0.1 4.1 9 15
+ 0.29992 2 3 cbr 512 ------- 0 0.1 4.1 9 15
+ 0.3 0 2 ping 500 ------- 1 0.0 4.0 -1 108
d 0.3 0 2 ping 500 ------- 1 0.0 4.0 -1 108
+ 0.3 1 2 ping 500 ------- 2 1.0 5.0 -1 109
- 0.3 1 2 ping 500 ------- 2 1.0 5.0 -1 109
+ 0.3 0 2 cbr 512 ------- 0 0.1 4.1 100 110
d 0.3 0 2 cbr 512 ------- 0 0.1 4.1 100 110
+ 0.301 0 2 cbr 512 ------- 0 0.1 4.1 101 111
d 0.301 0 2 cbr 512 ------- 0 0.1 4.1 101 111
r 0.301344 2 3 cbr 512 ------- 0 0.1 4.1 6 12
+ 0.301344 3 4 cbr 512 ------- 0 0.1 4.1 6 12
- 0.301344 3 4 cbr 512 ------- 0 0.1 4.1 6 12
+ 0.302 0 2 cbr 512 ------- 0 0.1 4.1 102 112
d 0.302 0 2 cbr 512 ------- 0 0.1 4.1 102 112
+ 0.303 0 2 cbr 512 ------- 0 0.1 4.1 103 113
d 0.303 0 2 cbr 512 ------- 0 0.1 4.1 103 113
r 0.303152 3 4 cbr 512 ------- 0 0.1 4.1 4 10
+ 0.304 0 2 cbr 512 ------- 0 0.1 4.1 104 114
d 0.304 0 2 cbr 512 ------- 0 0.1 4.1 104 114
+ 0.305 0 2 cbr 512 ------- 0 0.1 4.1 105 115
d 0.305 0 2 cbr 512 ------- 0 0.1 4.1 105 115
+ 0.306 0 2 cbr 512 ------- 0 0.1 4.1 106 116
d 0.306 0 2 cbr 512 ------- 0 0.1 4.1 106 116
- 0.306304 0 2 cbr 512 ------- 0 0.1 4.1 12 18
+ 0.307 0 2 cbr 512 ------- 0 0.1 4.1 107 117
- 0.307728 2 3 cbr 512 ------- 0 0.1 4.1 9 15
r 0.308 2 0 ping 500 ------- 0 4.0 0.0 -1 60
+ 0.308 0 2 cbr 512 ------- 0 0.1 4.1 108 118
d 0.308 0 2 cbr 512 ------- 0 0.1 4.1 108 118
r 0.308112 0 2 cbr 512 ------- 0 0.1 4.1 10 16
+ 0.308112 2 3 cbr 512 ------- 0 0.1 4.1 10 16
+ 0.309 0 2 cbr 512 ------- 0 0.1 4.1 109 119
d 0.309 0 2 cbr 512 ------- 0 0.1 4.1 109 119
r 0.309536 2 3 cbr 512 ------- 0 0.1 4.1 7 13
+ 0.309536 3 4 cbr 512 ------- 0 0.1 4.1 7 13
- 0.309536 3 4 cbr 512 ------- 0 0.1 4.1 7 13
+ 0.31 0 2 cbr 512 ------- 0 0.1 4.1 110 120
d 0.31 0 2 cbr 512 ------- 0 0.1 4.1 110 120
+ 0.311 0 2 cbr 512 ------- 0 0.1 4.1 111 121
d 0.311 0 2 cbr 512 ------- 0 0.1 4.1 111 121
r 0.311344 3 4 cbr 512 ------- 0 0.1 4.1 5 11
+ 0.312 0 2 cbr 512 ------- 0 0.1 4.1 112 122
d 0.312 0 2 cbr 512 ------- 0 0.1 4.1 112 122
+ 0.313 0 2 cbr 512 ------- 0 0.1 4.1 113 123
d 0.313 0 2 cbr 512 ------- 0 0.1 4.1 113 123
+ 0.314 0 2 cbr 512 ------- 0 0.1 4.1 114 124
d 0.314 0 2 cbr 512 ------- 0 0.1 4.1 114 124
- 0.314496 0 2 cbr 512 ------- 0 0.1 4.1 13 19
+ 0.315 0 2 cbr 512 ------- 0 0.1 4.1 115 125
- 0.31592 2 3 cbr 512 ------- 0 0.1 4.1 10 16
r 0.316 2 1 ping 500 ------- 0 5.0 1.0 -1 69
+ 0.316 0 2 cbr 512 ------- 0 0.1 4.1 116 126
d 0.316 0 2 cbr 512 ------- 0 0.1 4.1 116 126
r 0.316304 0 2 cbr 512 ------- 0 0.1 4.1 11 17
+ 0.316304 2 3 cbr 512 ------- 0 0.1 4.1 11 17
+ 0.317 0 2 cbr 512 ------- 0 0.1 4.1 117 127
d 0.317 0 2 cbr 512 ------- 0 0.1 4.1 117 127
r 0.317728 2 3 cbr 512 ------- 0 0.1 4.1 8 14
+ 0.317728 3 4 cbr 512 ------- 0 0.1 4.1 8 14
- 0.317728 3 4 cbr 512 ------- 0 0.1 4.1 8 14
r 0.318 1 2 ping 500 ------- 2 1.0 5.0 -1 109
+ 0.318 2 3 ping 500 ------- 2 1.0 5.0 -1 109
+ 0.318 0 2 cbr 512 ------- 0 0.1 4.1 118 128
d 0.318 0 2 cbr 512 ------- 0 0.1 4.1 118 128
+ 0.319 0 2 cbr 512 ------- 0 0.1 4.1 119 129
d 0.319 0 2 cbr 512 ------- 0 0.1 4.1 119 129
r 0.319536 3 4 cbr 512 ------- 0 0.1 4.1 6 12
+ 0.32 0 2 cbr 512 ------- 0 0.1 4.1 120 130
d 0.32 0 2 cbr 512 ------- 0 0.1 4.1 120 130
+ 0.321 0 2 cbr 512 ------- 0 0.1 4.1 121 131
d 0.321 0 2 cbr 512 ------- 0 0.1 4.1 121 131
+ 0.322 0 2 cbr 512 ------- 0 0.1 4.1 122 132
d 0.322 0 2 cbr 512 ------- 0 0.1 4.1 122 132
- 0.322688 0 2 cbr 512 ------- 0 0.1 4.1 14 20
+ 0.323 0 2 cbr 512 ------- 0 0.1 4.1 123 133
+ 0.324 0 2 cbr 512 ------- 0 0.1 4.1 124 134
d 0.324 0 2 cbr 512 ------- 0 0.1 4.1 124 134
- 0.324112 2 3 cbr 512 ------- 0 0.1 4.1 11 17
r 0.324496 0 2 cbr 512 ------- 0 0.1 4.1 12 18
+ 0.324496 2 3 cbr 512 ------- 0 0.1 4.1 12 18
+ 0.325 0 2 cbr 512 ------- 0 0.1 4.1 125 135
d 0.325 0 2 cbr 512 ------- 0 0.1 4.1 125 135
r 0.32592 2 3 cbr 512 ------- 0 0.1 4.1 9 15
+ 0.32592 3 4 cbr 512 ------- 0 0.1 4.1 9 15
- 0.32592 3 4 cbr 512 ------- 0 0.1 4.1 9 15
+ 0.326 0 2 cbr 512 ------- 0 0.1 4.1 126 136
d 0.326 0 2 cbr 512 ------- 0 0.1 4.1 126 136
+ 0.327 0 2 cbr 512 ------- 0 0.1 4.1 127 137
d 0.327 0 2 cbr 512 ------- 0 0.1 4.1 127 137
r 0.327728 3 4 cbr 512 ------- 0 0.1 4.1 7 13
+ 0.328 0 2 cbr 512 ------- 0 0.1 4.1 128 138
d 0.328 0 2 cbr 512 ------- 0 0.1 4.1 128 138
+ 0.329 0 2 cbr 512 ------- 0 0.1 4.1 129 139
d 0.329 0 2 cbr 512 ------- 0 0.1 4.1 129 139
+ 0.33 0 2 cbr 512 ------- 0 0.1 4.1 130 140
d 0.33 0 2 cbr 512 ------- 0 0.1 4.1 130 140
- 0.33088 0 2 cbr 512 ------- 0 0.1 4.1 15 21
+ 0.331 0 2 cbr 512 ------- 0 0.1 4.1 131 141
+ 0.332 0 2 cbr 512 ------- 0 0.1 4.1 132 142
d 0.332 0 2 cbr 512 ------- 0 0.1 4.1 132 142
- 0.332304 2 3 ping 500 ------- 2 1.0 5.0 -1 109
r 0.332688 0 2 cbr 512 ------- 0 0.1 4.1 13 19
+ 0.332688 2 3 cbr 512 ------- 0 0.1 4.1 13 19
+ 0.333 0 2 cbr 512 ------- 0 0.1 4.1 133 143
d 0.333 0 2 cbr 512 ------- 0 0.1 4.1 133 143
+ 0.334 0 2 cbr 512 ------- 0 0.1 4.1 134 144
d 0.334 0 2 cbr 512 ------- 0 0.1 4.1 134 144
r 0.334112 2 3 cbr 512 ------- 0 0.1 4.1 10 16
+ 0.334112 3 4 cbr 512 ------- 0 0.1 4.1 10 16
- 0.334112 3 4 cbr 512 ------- 0 0.1 4.1 10 16
+ 0.335 0 2 cbr 512 ------- 0 0.1 4.1 135 145
d 0.335 0 2 cbr 512 ------- 0 0.1 4.1 135 145
r 0.33592 3 4 cbr 512 ------- 0 0.1 4.1 8 14
+ 0.336 0 2 cbr 512 ------- 0 0.1 4.1 136 146
d 0.336 0 2 cbr 512 ------- 0 0.1 4.1 136 146
+ 0.337 0 2 cbr 512 ------- 0 0.1 4.1 137 147
d 0.337 0 2 cbr 512 ------- 0 0.1 4.1 137 147
+ 0.338 0 2 cbr 512 ------- 0 0.1 4.1 138 148
d 0.338 0 2 cbr 512 ------- 0 0.1 4.1 138 148
+ 0.339 0 2 cbr 512 ------- 0 0.1 4.1 139 149
d 0.339 0 2 cbr 512 ------- 0 0.1 4.1 139 149
- 0.339072 0 2 cbr 512 ------- 0 0.1 4.1 16 22
+ 0.34 0 2 cbr 512 ------- 0 0.1 4.1 140 150
- 0.340304 2 3 cbr 512 ------- 0 0.1 4.1 12 18
r 0.34088 0 2 cbr 512 ------- 0 0.1 4.1 14 20
+ 0.34088 2 3 cbr 512 ------- 0 0.1 4.1 14 20
+ 0.341 0 2 cbr 512 ------- 0 0.1 4.1 141 151
d 0.341 0 2 cbr 512 ------- 0 0.1 4.1 141 151
+ 0.342 0 2 cbr 512 ------- 0 0.1 4.1 142 152
d 0.342 0 2 cbr 512 ------- 0 0.1 4.1 142 152
r 0.342304 2 3 cbr 512 ------- 0 0.1 4.1 11 17
+ 0.342304 3 4 cbr 512 ------- 0 0.1 4.1 11 17
- 0.342304 3 4 cbr 512 ------- 0 0.1 4.1 11 17
+ 0.343 0 2 cbr 512 ------- 0 0.1 4.1 143 153
d 0.343 0 2 cbr 512 ------- 0 0.1 4.1 143 153
+ 0.344 0 2 cbr 512 ------- 0 0.1 4.1 144 154
d 0.344 0 2 cbr 512 ------- 0 0.1 4.1 144 154
r 0.344112 3 4 cbr 512 ------- 0 0.1 4.1 9 15
+ 0.345 0 2 cbr 512 ------- 0 0.1 4.1 145 155
d 0.345 0 2 cbr 512 ------- 0 0.1 4.1 145 155
+ 0.346 0 2 cbr 512 ------- 0 0.1 4.1 146 156
d 0.346 0 2 cbr 512 ------- 0 0.1 4.1 146 156
+ 0.347 0 2 cbr 512 ------- 0 0.1 4.1 147 157
d 0.347 0 2 cbr 512 ------- 0 0.1 4.1 147 157
- 0.347264 0 2 cbr 512 ------- 0 0.1 4.1 17 23
+ 0.348 0 2 cbr 512 ------- 0 0.1 4.1 148 158
- 0.348496 2 3 cbr 512 ------- 0 0.1 4.1 13 19
+ 0.349 0 2 cbr 512 ------- 0 0.1 4.1 149 159
d 0.349 0 2 cbr 512 ------- 0 0.1 4.1 149 159
r 0.349072 0 2 cbr 512 ------- 0 0.1 4.1 15 21
+ 0.349072 2 3 cbr 512 ------- 0 0.1 4.1 15 21
+ 0.35 0 2 cbr 512 ------- 0 0.1 4.1 150 160
d 0.35 0 2 cbr 512 ------- 0 0.1 4.1 150 160
r 0.350304 2 3 ping 500 ------- 2 1.0 5.0 -1 109
+ 0.350304 3 5 ping 500 ------- 2 1.0 5.0 -1 109
- 0.350304 3 5 ping 500 ------- 2 1.0 5.0 -1 109
+ 0.351 0 2 cbr 512 ------- 0 0.1 4.1 151 161
d 0.351 0 2 cbr 512 ------- 0 0.1 4.1 151 161
+ 0.352 0 2 cbr 512 ------- 0 0.1 4.1 152 162
d 0.352 0 2 cbr 512 ------- 0 0.1 4.1 152 162
r 0.352304 3 4 cbr 512 ------- 0 0.1 4.1 10 16
+ 0.353 0 2 cbr 512 ------- 0 0.1 4.1 153 163
d 0.353 0 2 cbr 512 ------- 0 0.1 4.1 153 163
+ 0.354 0 2 cbr 512 ------- 0 0.1 4.1 154 164
d 0.354 0 2 cbr 512 ------- 0 0.1 4.1 154 164
+ 0.355 0 2 cbr 512 ------- 0 0.1 4.1 155 165
d 0.355 0 2 cbr 512 ------- 0 0.1 4.1 155 165
- 0.355456 0 2 cbr 512 ------- 0 0.1 4.1 18 24
+ 0.356 0 2 cbr 512 ------- 0 0.1 4.1 156 166
- 0.356688 2 3 cbr 512 ------- 0 0.1 4.1 14 20
+ 0.357 0 2 cbr 512 ------- 0 0.1 4.1 157 167
d 0.357 0 2 cbr 512 ------- 0 0.1 4.1 157 167
r 0.357264 0 2 cbr 512 ------- 0 0.1 4.1 16 22
+ 0.357264 2 3 cbr 512 ------- 0 0.1 4.1 16 22
+ 0.358 0 2 cbr 512 ------- 0 0.1 4.1 158 168
d 0.358 0 2 cbr 512 ------- 0 0.1 4.1 158 168
r 0.358496 2 3 cbr 512 ------- 0 0.1 4.1 12 18
+ 0.358496 3 4 cbr 512 ------- 0 0.1 4.1 12 18
- 0.358496 3 4 cbr 512 ------- 0 0.1 4.1 12 18
+ 0.359 0 2 cbr 512 ------- 0 0.1 4.1 159 169
d 0.359 0 2 cbr 512 ------- 0 0.1 4.1 159 169
+ 0.36 0 2 cbr 512 ------- 0 0.1 4.1 160 170
d 0.36 0 2 cbr 512 ------- 0 0.1 4.1 160 170
r 0.360496 3 4 cbr 512 ------- 0 0.1 4.1 11 17
+ 0.361 0 2 cbr 512 ------- 0 0.1 4.1 161 171
d 0.361 0 2 cbr 512 ------- 0 0.1 4.1 161 171
+ 0.362 0 2 cbr 512 ------- 0 0.1 4.1 162 172
d 0.362 0 2 cbr 512 ------- 0 0.1 4.1 162 172
+ 0.363 0 2 cbr 512 ------- 0 0.1 4.1 163 173
d 0.363 0 2 cbr 512 ------- 0 0.1 4.1 163 173
- 0.363648 0 2 cbr 512 ------- 0 0.1 4.1 19 25
+ 0.364 0 2 cbr 512 ------- 0 0.1 4.1 164 174
- 0.36488 2 3 cbr 512 ------- 0 0.1 4.1 15 21
+ 0.365 0 2 cbr 512 ------- 0 0.1 4.1 165 175
d 0.365 0 2 cbr 512 ------- 0 0.1 4.1 165 175
r 0.365456 0 2 cbr 512 ------- 0 0.1 4.1 17 23
+ 0.365456 2 3 cbr 512 ------- 0 0.1 4.1 17 23
+ 0.366 0 2 cbr 512 ------- 0 0.1 4.1 166 176
d 0.366 0 2 cbr 512 ------- 0 0.1 4.1 166 176
r 0.366688 2 3 cbr 512 ------- 0 0.1 4.1 13 19
+ 0.366688 3 4 cbr 512 ------- 0 0.1 4.1 13 19
- 0.366688 3 4 cbr 512 ------- 0 0.1 4.1 13 19
+ 0.367 0 2 cbr 512 ------- 0 0.1 4.1 167 177
d 0.367 0 2 cbr 512 ------- 0 0.1 4.1 167 177
+ 0.368 0 2 cbr 512 ------- 0 0.1 4.1 168 178
d 0.368 0 2 cbr 512 ------- 0 0.1 4.1 168 178
r 0.368304 3 5 ping 500 ------- 2 1.0 5.0 -1 109
+ 0.368304 5 3 ping 500 ------- 0 5.0 1.0 -1 179
- 0.368304 5 3 ping 500 ------- 0 5.0 1.0 -1 179
+ 0.369 0 2 cbr 512 ------- 0 0.1 4.1 169 180
d 0.369 0 2 cbr 512 ------- 0 0.1 4.1 169 180
+ 0.37 0 2 cbr 512 ------- 0 0.1 4.1 170 181
d 0.37 0 2 cbr 512 ------- 0 0.1 4.1 170 181
+ 0.371 0 2 cbr 512 ------- 0 0.1 4.1 171 182
d 0.371 0 2 cbr 512 ------- 0 0.1 4.1 171 182
- 0.37184 0 2 cbr 512 ------- 0 0.1 4.1 20 26
+ 0.372 0 2 cbr 512 ------- 0 0.1 4.1 172 183
+ 0.373 0 2 cbr 512 ------- 0 0.1 4.1 173 184
d 0.373 0 2 cbr 512 ------- 0 0.1 4.1 173 184
- 0.373072 2 3 cbr 512 ------- 0 0.1 4.1 16 22
r 0.373648 0 2 cbr 512 ------- 0 0.1 4.1 18 24
+ 0.373648 2 3 cbr 512 ------- 0 0.1 4.1 18 24
+ 0.374 0 2 cbr 512 ------- 0 0.1 4.1 174 185
d 0.374 0 2 cbr 512 ------- 0 0.1 4.1 174 185
r 0.37488 2 3 cbr 512 ------- 0 0.1 4.1 14 20
+ 0.37488 3 4 cbr 512 ------- 0 0.1 4.1 14 20
- 0.37488 3 4 cbr 512 ------- 0 0.1 4.1 14 20
+ 0.375 0 2 cbr 512 ------- 0 0.1 4.1 175 186
d 0.375 0 2 cbr 512 ------- 0 0.1 4.1 175 186
+ 0.376 0 2 cbr 512 ------- 0 0.1 4.1 176 187
d 0.376 0 2 cbr 512 ------- 0 0.1 4.1 176 187
r 0.376688 3 4 cbr 512 ------- 0 0.1 4.1 12 18
+ 0.377 0 2 cbr 512 ------- 0 0.1 4.1 177 188
d 0.377 0 2 cbr 512 ------- 0 0.1 4.1 177 188
+ 0.378 0 2 cbr 512 ------- 0 0.1 4.1 178 189
d 0.378 0 2 cbr 512 ------- 0 0.1 4.1 178 189
+ 0.379 0 2 cbr 512 ------- 0 0.1 4.1 179 190
d 0.379 0 2 cbr 512 ------- 0 0.1 4.1 179 190
+ 0.38 0 2 cbr 512 ------- 0 0.1 4.1 180 191
d 0.38 0 2 cbr 512 ------- 0 0.1 4.1 180 191
- 0.380032 0 2 cbr 512 ------- 0 0.1 4.1 21 27
+ 0.381 0 2 cbr 512 ------- 0 0.1 4.1 181 192
- 0.381264 2 3 cbr 512 ------- 0 0.1 4.1 17 23
r 0.38184 0 2 cbr 512 ------- 0 0.1 4.1 19 25
+ 0.38184 2 3 cbr 512 ------- 0 0.1 4.1 19 25
+ 0.382 0 2 cbr 512 ------- 0 0.1 4.1 182 193
d 0.382 0 2 cbr 512 ------- 0 0.1 4.1 182 193
+ 0.383 0 2 cbr 512 ------- 0 0.1 4.1 183 194
d 0.383 0 2 cbr 512 ------- 0 0.1 4.1 183 194
r 0.383072 2 3 cbr 512 ------- 0 0.1 4.1 15 21
+ 0.383072 3 4 cbr 512 ------- 0 0.1 4.1 15 21
- 0.383072 3 4 cbr 512 ------- 0 0.1 4.1 15 21
+ 0.384 0 2 cbr 512 ------- 0 0.1 4.1 184 195
d 0.384 0 2 cbr 512 ------- 0 0.1 4.1 184 195
r 0.38488 3 4 cbr 512 ------- 0 0.1 4.1 13 19
+ 0.385 0 2 cbr 512 ------- 0 0.1 4.1 185 196
d 0.385 0 2 cbr 512 ------- 0 0.1 4.1 185 196
+ 0.386 0 2 cbr 512 ------- 0 0.1 4.1 186 197
d 0.386 0 2 cbr 512 ------- 0 0.1 4.1 186 197
r 0.386304 5 3 ping 500 ------- 0 5.0 1.0 -1 179
+ 0.386304 3 2 ping 500 ------- 0 5.0 1.0 -1 179
- 0.386304 3 2 ping 500 ------- 0 5.0 1.0 -1 179
+ 0.387 0 2 cbr 512 ------- 0 0.1 4.1 187 198
d 0.387 0 2 cbr 512 ------- 0 0.1 4.1 187 198
+ 0.388 0 2 cbr 512 ------- 0 0.1 4.1 188 199
d 0.388 0 2 cbr 512 ------- 0 0.1 4.1 188 199
- 0.388224 0 2 cbr 512 ------- 0 0.1 4.1 22 28
+ 0.389 0 2 cbr 512 ------- 0 0.1 4.1 189 200
- 0.389456 2 3 cbr 512 ------- 0 0.1 4.1 18 24
+ 0.39 0 2 cbr 512 ------- 0 0.1 4.1 190 201
d 0.39 0 2 cbr 512 ------- 0 0.1 4.1 190 201
r 0.390032 0 2 cbr 512 ------- 0 0.1 4.1 20 26
+ 0.390032 2 3 cbr 512 ------- 0 0.1 4.1 20 26
+ 0.391 0 2 cbr 512 ------- 0 0.1 4.1 191 202
d 0.391 0 2 cbr 512 ------- 0 0.1 4.1 191 202
r 0.391264 2 3 cbr 512 ------- 0 0.1 4.1 16 22
+ 0.391264 3 4 cbr 512 ------- 0 0.1 4.1 16 22
- 0.391264 3 4 cbr 512 ------- 0 0.1 4.1 16 22
+ 0.392 0 2 cbr 512 ------- 0 0.1 4.1 192 203
d 0.392 0 2 cbr 512 ------- 0 0.1 4.1 192 203
+ 0.393 0 2 cbr 512 ------- 0 0.1 4.1 193 204
d 0.393 0 2 cbr 512 ------- 0 0.1 4.1 193 204
r 0.393072 3 4 cbr 512 ------- 0 0.1 4.1 14 20
+ 0.394 0 2 cbr 512 ------- 0 0.1 4.1 194 205
d 0.394 0 2 cbr 512 ------- 0 0.1 4.1 194 205
+ 0.395 0 2 cbr 512 ------- 0 0.1 4.1 195 206
d 0.395 0 2 cbr 512 ------- 0 0.1 4.1 195 206
+ 0.396 0 2 cbr 512 ------- 0 0.1 4.1 196 207
d 0.396 0 2 cbr 512 ------- 0 0.1 4.1 196 207
- 0.396416 0 2 cbr 512 ------- 0 0.1 4.1 23 29
+ 0.397 0 2 cbr 512 ------- 0 0.1 4.1 197 208
- 0.397648 2 3 cbr 512 ------- 0 0.1 4.1 19 25
+ 0.398 0 2 cbr 512 ------- 0 0.1 4.1 198 209
d 0.398 0 2 cbr 512 ------- 0 0.1 4.1 198 209
r 0.398224 0 2 cbr 512 ------- 0 0.1 4.1 21 27
+ 0.398224 2 3 cbr 512 ------- 0 0.1 4.1 21 27
+ 0.399 0 2 cbr 512 ------- 0 0.1 4.1 199 210
d 0.399 0 2 cbr 512 ------- 0 0.1 4.1 199 210
r 0.399456 2 3 cbr 512 ------- 0 0.1 4.1 17 23
+ 0.399456 3 4 cbr 512 ------- 0 0.1 4.1 17 23
- 0.399456 3 4 cbr 512 ------- 0 0.1 4.1 17 23
+ 0.4 0 2 ping 500 ------- 1 0.0 4.0 -1 211
d 0.4 0 2 ping 500 ------- 1 0.0 4.0 -1 211
+ 0.4 1 2 ping 500 ------- 2 1.0 5.0 -1 212
- 0.4 1 2 ping 500 ------- 2 1.0 5.0 -1 212
+ 0.4 0 2 cbr 512 ------- 0 0.1 4.1 200 213
d 0.4 0 2 cbr 512 ------- 0 0.1 4.1 200 213
+ 0.401 0 2 cbr 512 ------- 0 0.1 4.1 201 214
d 0.401 0 2 cbr 512 ------- 0 0.1 4.1 201 214
r 0.401264 3 4 cbr 512 ------- 0 0.1 4.1 15 21
+ 0.402 0 2 cbr 512 ------- 0 0.1 4.1 202 215
d 0.402 0 2 cbr 512 ------- 0 0.1 4.1 202 215
+ 0.403 0 2 cbr 512 ------- 0 0.1 4.1 203 216
d 0.403 0 2 cbr 512 ------- 0 0.1 4.1 203 216
+ 0.404 0 2 cbr 512 ------- 0 0.1 4.1 204 217
d 0.404 0 2 cbr 512 ------- 0 0.1 4.1 204 217
r 0.404304 3 2 ping 500 ------- 0 5.0 1.0 -1 179
+ 0.404304 2 1 ping 500 ------- 0 5.0 1.0 -1 179
- 0.404304 2 1 ping 500 ------- 0 5.0 1.0 -1 179
- 0.404608 0 2 cbr 512 ------- 0 0.1 4.1 24 30
+ 0.405 0 2 cbr 512 ------- 0 0.1 4.1 205 218
- 0.40584 2 3 cbr 512 ------- 0 0.1 4.1 20 26
+ 0.406 0 2 cbr 512 ------- 0 0.1 4.1 206 219
d 0.406 0 2 cbr 512 ------- 0 0.1 4.1 206 219
r 0.406416 0 2 cbr 512 ------- 0 0.1 4.1 22 28
+ 0.406416 2 3 cbr 512 ------- 0 0.1 4.1 22 28
+ 0.407 0 2 cbr 512 ------- 0 0.1 4.1 207 220
d 0.407 0 2 cbr 512 ------- 0 0.1 4.1 207 220
r 0.407648 2 3 cbr 512 ------- 0 0.1 4.1 18 24
+ 0.407648 3 4 cbr 512 ------- 0 0.1 4.1 18 24
- 0.407648 3 4 cbr 512 ------- 0 0.1 4.1 18 24
+ 0.408 0 2 cbr 512 ------- 0 0.1 4.1 208 221
d 0.408 0 2 cbr 512 ------- 0 0.1 4.1 208 221
+ 0.409 0 2 cbr 512 ------- 0 0.1 4.1 209 222
d 0.409 0 2 cbr 512 ------- 0 0.1 4.1 209 222
r 0.409456 3 4 cbr 512 ------- 0 0.1 4.1 16 22
+ 0.41 0 2 cbr 512 ------- 0 0.1 4.1 210 223
d 0.41 0 2 cbr 512 ------- 0 0.1 4.1 210 223
+ 0.411 0 2 cbr 512 ------- 0 0.1 4.1 211 224
d 0.411 0 2 cbr 512 ------- 0 0.1 4.1 211 224
+ 0.412 0 2 cbr 512 ------- 0 0.1 4.1 212 225
d 0.412 0 2 cbr 512 ------- 0 0.1 4.1 212 225
- 0.4128 0 2 cbr 512 ------- 0 0.1 4.1 25 31
+ 0.413 0 2 cbr 512 ------- 0 0.1 4.1 213 226
+ 0.414 0 2 cbr 512 ------- 0 0.1 4.1 214 227
d 0.414 0 2 cbr 512 ------- 0 0.1 4.1 214 227
- 0.414032 2 3 cbr 512 ------- 0 0.1 4.1 21 27
r 0.414608 0 2 cbr 512 ------- 0 0.1 4.1 23 29
+ 0.414608 2 3 cbr 512 ------- 0 0.1 4.1 23 29
+ 0.415 0 2 cbr 512 ------- 0 0.1 4.1 215 228
d 0.415 0 2 cbr 512 ------- 0 0.1 4.1 215 228
r 0.41584 2 3 cbr 512 ------- 0 0.1 4.1 19 25
+ 0.41584 3 4 cbr 512 ------- 0 0.1 4.1 19 25
- 0.41584 3 4 cbr 512 ------- 0 0.1 4.1 19 25
+ 0.416 0 2 cbr 512 ------- 0 0.1 4.1 216 229
d 0.416 0 2 cbr 512 ------- 0 0.1 4.1 216 229
+ 0.417 0 2 cbr 512 ------- 0 0.1 4.1 217 230
d 0.417 0 2 cbr 512 ------- 0 0.1 4.1 217 230
r 0.417648 3 4 cbr 512 ------- 0 0.1 4.1 17 23
r 0.418 1 2 ping 500 ------- 2 1.0 5.0 -1 212
+ 0.418 2 3 ping 500 ------- 2 1.0 5.0 -1 212
+ 0.418 0 2 cbr 512 ------- 0 0.1 4.1 218 231
d 0.418 0 2 cbr 512 ------- 0 0.1 4.1 218 231
+ 0.419 0 2 cbr 512 ------- 0 0.1 4.1 219 232
d 0.419 0 2 cbr 512 ------- 0 0.1 4.1 219 232
+ 0.42 0 2 cbr 512 ------- 0 0.1 4.1 220 233
d 0.42 0 2 cbr 512 ------- 0 0.1 4.1 220 233
- 0.420992 0 2 cbr 512 ------- 0 0.1 4.1 26 32
+ 0.421 0 2 cbr 512 ------- 0 0.1 4.1 221 234
+ 0.422 0 2 cbr 512 ------- 0 0.1 4.1 222 235
d 0.422 0 2 cbr 512 ------- 0 0.1 4.1 222 235
- 0.422224 2 3 cbr 512 ------- 0 0.1 4.1 22 28
r 0.422304 2 1 ping 500 ------- 0 5.0 1.0 -1 179
r 0.4228 0 2 cbr 512 ------- 0 0.1 4.1 24 30
+ 0.4228 2 3 cbr 512 ------- 0 0.1 4.1 24 30
+ 0.423 0 2 cbr 512 ------- 0 0.1 4.1 223 236
d 0.423 0 2 cbr 512 ------- 0 0.1 4.1 223 236
+ 0.424 0 2 cbr 512 ------- 0 0.1 4.1 224 237
d 0.424 0 2 cbr 512 ------- 0 0.1 4.1 224 237
r 0.424032 2 3 cbr 512 ------- 0 0.1 4.1 20 26
+ 0.424032 3 4 cbr 512 ------- 0 0.1 4.1 20 26
- 0.424032 3 4 cbr 512 ------- 0 0.1 4.1 20 26
+ 0.425 0 2 cbr 512 ------- 0 0.1 4.1 225 238
d 0.425 0 2 cbr 512 ------- 0 0.1 4.1 225 238
r 0.42584 3 4 cbr 512 ------- 0 0.1 4.1 18 24
+ 0.426 0 2 cbr 512 ------- 0 0.1 4.1 226 239
d 0.426 0 2 cbr 512 ------- 0 0.1 4.1 226 239
+ 0.427 0 2 cbr 512 ------- 0 0.1 4.1 227 240
d 0.427 0 2 cbr 512 ------- 0 0.1 4.1 227 240
+ 0.428 0 2 cbr 512 ------- 0 0.1 4.1 228 241